 Fermi distribution function
 
 
 Total charge:     0.00000000

 Atomic gross charges (e)
 Atom           Charge
    1      -0.32161071
    2       0.05269795
    3       0.08963759
    4       0.08963759
    5       0.08963759
 

 Atomic net (on-site) populations and hybridisation ratios
 Atom       Population         Hybrid.
    1       2.86768287      0.28307928
    2       0.62687106      0.37312894
    3       0.58798622      0.41201378
    4       0.58798622      0.41201378
    5       0.58798622      0.41201378
 
Nr. of electrons (up):      8.00000000
Atom populations (up)
 Atom       Population
    1       4.32161071
    2       0.94730205
    3       0.91036241
    4       0.91036241
    5       0.91036241
 
l-shell populations (up)
 Atom Sh.   l       Population
    1   1   0       1.30114403
    1   2   1       3.02046668
    2   1   0       0.94730205
    3   1   0       0.91036241
    4   1   0       0.91036241
    5   1   0       0.91036241
 
Orbital populations (up)
 Atom Sh.   l   m       Population  Label
    1   1   0   0       1.30114403  s
    1   2   1  -1       1.00682223  p_y
    1   2   1   0       1.00682223  p_z
    1   2   1   1       1.00682223  p_x
    2   1   0   0       0.94730205  s
    3   1   0   0       0.91036241  s
    4   1   0   0       0.91036241  s
    5   1   0   0       0.91036241  s
 
Fermi level:                        -0.0105088942 H           -0.2860 eV
Band energy:                        -3.2526949301 H          -88.5103 eV
TS:                                  0.0000000000 H            0.0000 eV
Band free energy (E-TS):            -3.2526949301 H          -88.5103 eV
Extrapolated E(0K):                 -3.2526949301 H          -88.5103 eV
Output electrons (q):      8.0000000000
 
Energy H0:                          -3.2411763861 H          -88.1969 eV
Energy ext. field:                   0.0068561183 H            0.1866 eV
Total Electronic energy:            -3.2343202678 H          -88.0103 eV
Repulsive energy:                    0.0146728737 H            0.3993 eV
Total energy:                       -3.2196473941 H          -87.6111 eV
Extrapolated to 0:                  -3.2196473941 H          -87.6111 eV
Total Mermin free energy:           -3.2196473941 H          -87.6111 eV
Force related energy:               -3.2196473941 H          -87.6111 eV
 
Non-constrained calculation
 
Non-SCC calculation
 
Total Forces
    1     -0.003506758540     -0.003506758540     -0.003506758540
    2      0.002080546661      0.002080546661      0.002080546661
    3      0.000556197694      0.000556197694      0.000313816490
    4      0.000556197694      0.000313816490      0.000556197694
    5      0.000313816490      0.000556197694      0.000556197694
 
Maximal derivative component:        0.350676E-02 au
 
Dipole moment:   -0.04389120   -0.04389120   -0.04389120 au
Dipole moment:   -0.11156031   -0.11156031   -0.11156031 Debye
 
 
