   30
Geometry Step: 0
    C      3.97371005     -1.54071740      0.06465482      4.11622315
    C      2.84032386     -0.71304021      0.06461006      3.92947431
    C      2.93529284      0.71158343      0.06463651      4.09327660
    C      4.20099019      1.31287105      0.06472067      4.04393720
    C      5.33083089      0.49041262      0.06477068      4.08829546
    C      5.22020560     -0.91265327      0.06473582      4.07009893
    H      3.88253047     -2.63447435      0.06463221      0.91727988
    H      4.30059032      2.40582518      0.06474996      0.91017670
    H      6.33079300      0.94452953      0.06484042      0.92390599
    H      6.13222827     -1.52377376      0.06477660      0.92356860
    N      1.50602140     -1.06665307      0.06454805      5.03470978
    H      1.12100726     -2.02562641      0.06453376      0.76764776
    C      1.56150698      1.23638048      0.06458519      3.68151560
    O      1.14987175      2.42259199      0.06458678      6.47384438
    N     -1.50602133      1.06665312      0.06454805      5.03476171
    C     -1.56150695     -1.23638042      0.06458519      3.68170804
    C     -2.84032379      0.71304029      0.06461006      3.92947556
    H     -1.12100715      2.02562644      0.06453376      0.76769079
    C     -2.93529280     -0.71158334      0.06463651      4.09317082
    O     -1.14887173     -2.42259193      0.06458678      6.47399265
    C     -3.97370995      1.54071750      0.06465482      4.11622988
    C     -4.20099015     -1.31287093      0.06472067      4.04397741
    C     -5.22020550      0.91265340      0.06473582      4.07011575
    H     -3.88253034      2.63447443      0.06463221      0.91728228
    C     -5.33083082     -0.49041248      0.06477068      4.08828838
    H     -4.30059031     -2.40582504      0.06474996      0.91017366
    H     -6.13222815      1.52377390      0.06477660      0.92356769
    H     -6.33079294     -0.94452937      0.06484042      0.92390437
    C     -0.71205094     -0.04717170      0.06453550      4.02578981
    C      0.71205098      0.04717173      0.06453550      4.02591685
   30
Geometry Step: 1
    C      3.97350520     -1.54107734      0.06465495      4.11792834
    C      2.83901027     -0.71520876      0.06460982      3.92717912
    C      2.93577893      0.71324006      0.06463670      4.09462390
    C      4.20002734      1.31293014      0.06472043      4.04509309
    C      5.33144526      0.49044664      0.06477051      4.08883823
    C      5.22081578     -0.91306918      0.06473582      4.07078652
    H      3.88254555     -2.63449009      0.06463225      0.91762173
    H      4.30059622      2.40582091      0.06474977      0.91090934
    H      6.33081135      0.94446469      0.06484014      0.92391899
    H      6.13220958     -1.52371309      0.06477653      0.92354329
    N      1.50794680     -1.06637264      0.06454856      5.03684539
    H      1.12079355     -2.02587793      0.06453398      0.76940789
    C      1.56246957      1.24401948      0.06458534      3.68131553
    O      1.15048592      2.41876699      0.06458693      6.46357015
    N     -1.50786838      1.06640860      0.06454856      5.03672706
    C     -1.56189420     -1.24452788      0.06458533      3.68050780
    C     -2.83902771      0.71521399      0.06460982      3.92715891
    H     -1.12083474      2.02585952      0.06453398      0.76933434
    C     -2.93562646     -0.71346341      0.06463669      4.09518723
    O     -1.15005359     -2.41805371      0.06458694      6.46309290
    C     -3.97347925      1.54106495      0.06465495      4.11788691
    C     -4.20007204     -1.31294054      0.06472043      4.04497056
    C     -5.22083065      0.91306481      0.06473583      4.07072496
    H     -3.88254407      2.63448901      0.06463225      0.91760701
    C     -5.33143434     -0.49045282      0.06477051      4.08886270
    H     -4.30059834     -2.40581822      0.06474977      0.91097150
    H     -6.13220895      1.52371307      0.06477653      0.92353507
    H     -6.33081045     -0.94446471      0.06484014      0.92392229
    C     -0.70043432     -0.04360324      0.06453530      4.02914862
    C      0.70027718      0.04363213      0.06453529      4.02878064
   30
Geometry Step: 1
    C      3.97350520     -1.54107734      0.06465495      4.11645307
    C      2.83901027     -0.71520876      0.06460982      3.92782310
    C      2.93577893      0.71324006      0.06463670      4.09598465
    C      4.20002734      1.31293014      0.06472043      4.04437412
    C      5.33144526      0.49044664      0.06477051      4.08799225
    C      5.22081578     -0.91306918      0.06473582      4.07169670
    H      3.88254555     -2.63449009      0.06463225      0.91757699
    H      4.30059622      2.40582091      0.06474977      0.91072383
    H      6.33081135      0.94446469      0.06484014      0.92386405
    H      6.13220958     -1.52371309      0.06477653      0.92341783
    N      1.50794680     -1.06637264      0.06454856      5.03378809
    H      1.12079355     -2.02587793      0.06453398      0.76904291
    C      1.56246957      1.24401948      0.06458534      3.67820483
    O      1.15048592      2.41876699      0.06458693      6.46890663
    N     -1.50786838      1.06640860      0.06454856      5.03366195
    C     -1.56189420     -1.24452788      0.06458533      3.67745883
    C     -2.83902771      0.71521399      0.06460982      3.92781109
    H     -1.12083474      2.02585952      0.06453398      0.76896761
    C     -2.93562646     -0.71346341      0.06463669      4.09653402
    O     -1.15005359     -2.41805371      0.06458694      6.46837092
    C     -3.97347925      1.54106495      0.06465495      4.11640849
    C     -4.20007204     -1.31294054      0.06472043      4.04426592
    C     -5.22083065      0.91306481      0.06473583      4.07164395
    H     -3.88254407      2.63448901      0.06463225      0.91756329
    C     -5.33143434     -0.49045282      0.06477051      4.08800996
    H     -4.30059834     -2.40581822      0.06474977      0.91078810
    H     -6.13220895      1.52371307      0.06477653      0.92341046
    H     -6.33081045     -0.94446471      0.06484014      0.92386882
    C     -0.70043432     -0.04360324      0.06453530      4.03086649
    C      0.70027718      0.04363213      0.06453529      4.03052107
   30
Geometry Step: 2
    C      3.97367868     -1.54077252      0.06465484      4.11781582
    C      2.84012272     -0.71337227      0.06461002      3.92839403
    C      2.93536728      0.71183710      0.06463654      4.09240704
    C      4.20084275      1.31288009      0.06472063      4.04478500
    C      5.33092497      0.49041783      0.06477066      4.08913045
    C      5.22029903     -0.91271696      0.06473582      4.06941408
    H      3.88253278     -2.63447676      0.06463221      0.91737950
    H      4.30059122      2.40582452      0.06474993      0.91047087
    H      6.33079581      0.94451961      0.06484038      0.92396454
    H      6.13222541     -1.52376447      0.06477659      0.92368174
    N      1.50631623     -1.06661013      0.06454813      5.03785639
    H      1.12097454     -2.02566493      0.06453379      0.76826931
    C      1.56165438      1.23755021      0.06458521      3.68444580
    O      1.14996580      2.42200628      0.06458680      6.46715325
    N     -1.50630416      1.06661568      0.06454813      5.03788001
    C     -1.56156625     -1.23762802      0.06458521      3.68450155
    C     -2.84012532      0.71337314      0.06461002      3.92839420
    H     -1.12098075      2.02566213      0.06453379      0.76829455
    C     -2.93534389     -0.71187123      0.06463654      4.09239631
    O     -1.14905271     -2.42189701      0.06458680      6.46720242
    C     -3.97367462      1.54077071      0.06465484      4.11781420
    C     -4.20084956     -1.31288159      0.06472063      4.04480458
    C     -5.22030123      0.91271640      0.06473582      4.06942176
    H     -3.88253245      2.63447667      0.06463221      0.91737956
    C     -5.33092324     -0.49041866      0.06477066      4.08912519
    H     -4.30059154     -2.40582400      0.06474993      0.91047753
    H     -6.13222521      1.52376459      0.06477659      0.92367980
    H     -6.33079562     -0.94451947      0.06484038      0.92396394
    C     -0.71027213     -0.04662527      0.06453547      4.02471785
    C      0.71024810      0.04662973      0.06453547      4.02477873
   30
Geometry Step: 2
    C      3.97367868     -1.54077252      0.06465484      4.11625914
    C      2.84012272     -0.71337227      0.06461002      3.92923158
    C      2.93536728      0.71183710      0.06463654      4.09368288
    C      4.20084275      1.31288009      0.06472063      4.04399649
    C      5.33092497      0.49041783      0.06477066      4.08825734
    C      5.22029903     -0.91271696      0.06473582      4.07032774
    H      3.88253278     -2.63447676      0.06463221      0.91732398
    H      4.30059122      2.40582452      0.06474993      0.91025837
    H      6.33079581      0.94451961      0.06484038      0.92389822
    H      6.13222541     -1.52376447      0.06477659      0.92354487
    N      1.50631623     -1.06661013      0.06454813      5.03454609
    H      1.12097454     -2.02566493      0.06453379      0.76785870
    C      1.56165438      1.23755021      0.06458521      3.68098792
    O      1.14996580      2.42200628      0.06458680      6.47313027
    N     -1.50630416      1.06661568      0.06454813      5.03457061
    C     -1.56156625     -1.23762802      0.06458521      3.68103856
    C     -2.84012532      0.71337314      0.06461002      3.92923173
    H     -1.12098075      2.02566213      0.06453379      0.76788448
    C     -2.93534389     -0.71187123      0.06463654      4.09367451
    O     -1.14905271     -2.42189701      0.06458680      6.47318374
    C     -3.97367462      1.54077071      0.06465484      4.11625797
    C     -4.20084956     -1.31288159      0.06472063      4.04401546
    C     -5.22030123      0.91271640      0.06473582      4.07033547
    H     -3.88253245      2.63447667      0.06463221      0.91732425
    C     -5.33092324     -0.49041866      0.06477066      4.08825279
    H     -4.30059154     -2.40582400      0.06474993      0.91026531
    H     -6.13222521      1.52376459      0.06477659      0.92354309
    H     -6.33079562     -0.94451947      0.06484038      0.92389775
    C     -0.71027213     -0.04662527      0.06453547      4.02658083
    C      0.71024810      0.04662973      0.06453547      4.02663984
   30
Geometry Step: 3
    C      3.97355229     -1.54113523      0.06465497      4.11774073
    C      2.83928060     -0.71373622      0.06460987      3.92936735
    C      2.93457021      0.71265916      0.06463662      4.09286745
    C      4.20088449      1.31300965      0.06472046      4.04477625
    C      5.33107070      0.49039165      0.06477044      4.08913500
    C      5.22059953     -0.91289683      0.06473581      4.06955964
    H      3.88256432     -2.63461428      0.06463226      0.91737985
    H      4.30058142      2.40583606      0.06474973      0.91054039
    H      6.33093828      0.94452742      0.06484009      0.92398779
    H      6.13235580     -1.52382549      0.06477652      0.92361867
    N      1.50527410     -1.06649054      0.06454853      5.03659445
    H      1.12116935     -2.02566776      0.06453403      0.76835115
    C      1.56173372      1.23864856      0.06458524      3.68377113
    O      1.14965498      2.42185963      0.06458697      6.46696582
    N     -1.50530548      1.06649931      0.06454853      5.03655027
    C     -1.56143365     -1.23867393      0.06458524      3.68362128
    C     -2.83923432      0.71364222      0.06460987      3.92937776
    H     -1.12118928      2.02567727      0.06453403      0.76834902
    C     -2.93443744     -0.71285218      0.06463662      4.09296952
    O     -1.14909579     -2.42158434      0.06458698      6.46691276
    C     -3.97355140      1.54112114      0.06465497      4.11775801
    C     -4.20085061     -1.31302100      0.06472045      4.04474801
    C     -5.22059763      0.91289129      0.06473581      4.06952787
    H     -3.88256094      2.63461030      0.06463226      0.91737016
    C     -5.33108044     -0.49037959      0.06477045      4.08914954
    H     -4.30059205     -2.40584007      0.06474973      0.91056532
    H     -6.13235732      1.52382635      0.06477652      0.92362104
    H     -6.33093582     -0.94452766      0.06484009      0.92397803
    C     -0.71089080     -0.04610967      0.06453548      4.02543914
    C      0.71088417      0.04615621      0.06453547      4.02540661
   30
Geometry Step: 3
    C      3.97355229     -1.54113523      0.06465497      4.11618468
    C      2.83928060     -0.71373622      0.06460987      3.93021236
    C      2.93457021      0.71265916      0.06463662      4.09416083
    C      4.20088449      1.31300965      0.06472046      4.04398674
    C      5.33107070      0.49039165      0.06477044      4.08827281
    C      5.22059953     -0.91289683      0.06473581      4.07047411
    H      3.88256432     -2.63461428      0.06463226      0.91732717
    H      4.30058142      2.40583606      0.06474973      0.91033211
    H      6.33093828      0.94452742      0.06484009      0.92392321
    H      6.13235580     -1.52382549      0.06477652      0.92348391
    N      1.50527410     -1.06649054      0.06454853      5.03329378
    H      1.12116935     -2.02566776      0.06453403      0.76794555
    C      1.56173372      1.23864856      0.06458524      3.68033609
    O      1.14965498      2.42185963      0.06458697      6.47288225
    N     -1.50530548      1.06649931      0.06454853      5.03324802
    C     -1.56143365     -1.23867393      0.06458524      3.68019129
    C     -2.83923432      0.71364222      0.06460987      3.93022288
    H     -1.12118928      2.02567727      0.06453403      0.76794398
    C     -2.93443744     -0.71285218      0.06463662      4.09425980
    O     -1.14909579     -2.42158434      0.06458698      6.47282497
    C     -3.97355140      1.54112114      0.06465497      4.11620161
    C     -4.20085061     -1.31302100      0.06472045      4.04396038
    C     -5.22059763      0.91289129      0.06473581      4.07044306
    H     -3.88256094      2.63461030      0.06463226      0.91731755
    C     -5.33108044     -0.49037959      0.06477045      4.08828618
    H     -4.30059205     -2.40584007      0.06474973      0.91035722
    H     -6.13235732      1.52382635      0.06477652      0.92348633
    H     -6.33093582     -0.94452766      0.06484009      0.92391355
    C     -0.71089080     -0.04610967      0.06453548      4.02728570
    C      0.71088417      0.04615621      0.06453547      4.02724189
   30
Geometry Step: 4
    C      3.97364920     -1.54085711      0.06465487      4.11779836
    C      2.83992631     -0.71345715      0.06460999      3.92862082
    C      2.93518138      0.71202883      0.06463656      4.09251424
    C      4.20085248      1.31291031      0.06472059      4.04478296
    C      5.33095896      0.49041173      0.06477061      4.08913145
    C      5.22036911     -0.91275891      0.06473582      4.06944800
    H      3.88254014     -2.63450883      0.06463223      0.91737956
    H      4.30058894      2.40582721      0.06474988      0.91048707
    H      6.33082904      0.94452143      0.06484031      0.92396995
    H      6.13225582     -1.52377870      0.06477657      0.92366701
    N      1.50607318     -1.06658224      0.06454822      5.03756213
    H      1.12101997     -2.02566559      0.06453385      0.76828843
    C      1.56167288      1.23780637      0.06458522      3.68428853
    O      1.14989331      2.42197208      0.06458684      6.46710982
    N     -1.50607124      1.06658854      0.06454822      5.03756994
    C     -1.56153532     -1.23787195      0.06458522      3.68429624
    C     -2.83991752      0.71343590      0.06460999      3.92862338
    H     -1.12102938      2.02566566      0.06453385      0.76830728
    C     -2.93513248     -0.71210001      0.06463656      4.09252979
    O     -1.14906275     -2.42182409      0.06458684      6.46713535
    C     -3.97364588      1.54085243      0.06465487      4.11780113
    C     -4.20084981     -1.31291410      0.06472059      4.04479140
    C     -5.22037035      0.91275719      0.06473582      4.06944650
    H     -3.88253909      2.63450783      0.06463223      0.91737735
    C     -5.33095990     -0.49040955      0.06477061      4.08913079
    H     -4.30059166     -2.40582774      0.06474988      0.91049799
    H     -6.13225603      1.52377899      0.06477657      0.92366607
    H     -6.33082832     -0.94452138      0.06484031      0.92396721
    C     -0.71041642     -0.04650502      0.06453547      4.02488608
    C      0.71039645      0.04651929      0.06453547      4.02492519
   30
Geometry Step: 4
    C      3.97364920     -1.54085711      0.06465487      4.11624182
    C      2.83992631     -0.71345715      0.06460999      3.92946011
    C      2.93518138      0.71202883      0.06463656      4.09379417
    C      4.20085248      1.31291031      0.06472059      4.04399423
    C      5.33095896      0.49041173      0.06477061      4.08826090
    C      5.22036911     -0.91275891      0.06473582      4.07036185
    H      3.88254014     -2.63450883      0.06463223      0.91732471
    H      4.30058894      2.40582721      0.06474988      0.91027556
    H      6.33082904      0.94452143      0.06484031      0.92390403
    H      6.13225582     -1.52377870      0.06477657      0.92353064
    N      1.50607318     -1.06658224      0.06454822      5.03425407
    H      1.12101997     -2.02566559      0.06453385      0.76787899
    C      1.56167288      1.23780637      0.06458522      3.68083597
    O      1.14989331      2.42197208      0.06458684      6.47307268
    N     -1.50607124      1.06658854      0.06454822      5.03426221
    C     -1.56153532     -1.23787195      0.06458522      3.68084096
    C     -2.83991752      0.71343590      0.06460999      3.92946267
    H     -1.12102938      2.02566566      0.06453385      0.76789840
    C     -2.93513248     -0.71210001      0.06463656      4.09381081
    O     -1.14906275     -2.42182409      0.06458684      6.47310050
    C     -3.97364588      1.54085243      0.06465487      4.11624486
    C     -4.20084981     -1.31291410      0.06472059      4.04400264
    C     -5.22037035      0.91275719      0.06473582      4.07036056
    H     -3.88253909      2.63450783      0.06463223      0.91732267
    C     -5.33095990     -0.49040955      0.06477061      4.08826050
    H     -4.30059166     -2.40582774      0.06474988      0.91028673
    H     -6.13225603      1.52377899      0.06477657      0.92352983
    H     -6.33082832     -0.94452138      0.06484031      0.92390142
    C     -0.71041642     -0.04650502      0.06453547      4.02674524
    C      0.71039645      0.04651929      0.06453547      4.02678027
   30
Geometry Step: 5
    C      3.97354652     -1.54085834      0.06465493      4.11778442
    C      2.83972437     -0.71345778      0.06460995      3.92863322
    C      2.93504489      0.71216643      0.06463660      4.09245267
    C      4.20080495      1.31289496      0.06472050      4.04479706
    C      5.33097232      0.49038676      0.06477050      4.08911473
    C      5.22036493     -0.91282792      0.06473580      4.06945794
    H      3.88255195     -2.63461216      0.06463225      0.91739189
    H      4.30059665      2.40585304      0.06474979      0.91049745
    H      6.33089579      0.94452660      0.06484017      0.92396741
    H      6.13234169     -1.52382617      0.06477654      0.92366019
    N      1.50586377     -1.06666759      0.06454841      5.03764565
    H      1.12105749     -2.02571269      0.06453396      0.76825841
    C      1.56167645      1.23794569      0.06458523      3.68430842
    O      1.14965243      2.42215505      0.06458692      6.46714908
    N     -1.50587362      1.06667787      0.06454841      5.03765593
    C     -1.56149396     -1.23795424      0.06458523      3.68430663
    C     -2.83971912      0.71339686      0.06460995      3.92863520
    H     -1.12107503      2.02571666      0.06453396      0.76827424
    C     -2.93495957     -0.71227529      0.06463659      4.09246717
    O     -1.14894984     -2.42199599      0.06458693      6.46717467
    C     -3.97352971      1.54083436      0.06465493      4.11778728
    C     -4.20078593     -1.31290394      0.06472050      4.04480012
    C     -5.22036561      0.91282724      0.06473580      4.06945850
    H     -3.88254871      2.63460754      0.06463225      0.91739158
    C     -5.33096498     -0.49038638      0.06477050      4.08911497
    H     -4.30060527     -2.40585678      0.06474979      0.91051079
    H     -6.13234188      1.52382646      0.06477654      0.92365751
    H     -6.33089443     -0.94452723      0.06484017      0.92396538
    C     -0.71022357     -0.04659844      0.06453547      4.02482115
    C      0.71023801      0.04664683      0.06453547      4.02486032
   30
Geometry Step: 5
    C      3.97354652     -1.54085834      0.06465493      4.11622828
    C      2.83972437     -0.71345778      0.06460995      3.92946943
    C      2.93504489      0.71216643      0.06463660      4.09373436
    C      4.20080495      1.31289496      0.06472050      4.04400707
    C      5.33097232      0.49038676      0.06477050      4.08824446
    C      5.22036493     -0.91282792      0.06473580      4.07037120
    H      3.88255195     -2.63461216      0.06463225      0.91733675
    H      4.30059665      2.40585304      0.06474979      0.91028575
    H      6.33089579      0.94452660      0.06484017      0.92390134
    H      6.13234169     -1.52382617      0.06477654      0.92352366
    N      1.50586377     -1.06666759      0.06454841      5.03434035
    H      1.12105749     -2.02571269      0.06453396      0.76784901
    C      1.56167645      1.23794569      0.06458523      3.68085148
    O      1.14965243      2.42215505      0.06458692      6.47311626
    N     -1.50587362      1.06667787      0.06454841      5.03435110
    C     -1.56149396     -1.23795424      0.06458523      3.68084705
    C     -2.83971912      0.71339686      0.06460995      3.92947121
    H     -1.12107503      2.02571666      0.06453396      0.76786533
    C     -2.93495957     -0.71227529      0.06463659      4.09374974
    O     -1.14894984     -2.42199599      0.06458693      6.47314423
    C     -3.97352971      1.54083436      0.06465493      4.11623141
    C     -4.20078593     -1.31290394      0.06472050      4.04401000
    C     -5.22036561      0.91282724      0.06473580      4.07037187
    H     -3.88254871      2.63460754      0.06463225      0.91733657
    C     -5.33096498     -0.49038638      0.06477050      4.08824498
    H     -4.30060527     -2.40585678      0.06474979      0.91029928
    H     -6.13234188      1.52382646      0.06477654      0.92352109
    H     -6.33089443     -0.94452723      0.06484017      0.92389940
    C     -0.71022357     -0.04659844      0.06453547      4.02668109
    C      0.71023801      0.04664683      0.06453547      4.02671627
   30
Geometry Step: 6
    C      3.97338038     -1.54086033      0.06465502      4.11776191
    C      2.83939762     -0.71345879      0.06460988      3.92865316
    C      2.93482403      0.71238908      0.06463665      4.09235311
    C      4.20072805      1.31287011      0.06472036      4.04481992
    C      5.33099395      0.49034636      0.06477033      4.08908763
    C      5.22035817     -0.91293958      0.06473578      4.06947403
    H      3.88257107     -2.63477934      0.06463229      0.91741184
    H      4.30060912      2.40589482      0.06474963      0.91051425
    H      6.33100380      0.94453497      0.06483994      0.92396331
    H      6.13248064     -1.52390299      0.06477649      0.92364914
    N      1.50552495     -1.06680569      0.06454871      5.03778093
    H      1.12111819     -2.02578891      0.06453414      0.76820985
    C      1.56168224      1.23817112      0.06458525      3.68434065
    O      1.14926267      2.42245110      0.06458705      6.46721258
    N     -1.50555385      1.06682242      0.06454871      5.03779519
    C     -1.56142703     -1.23808740      0.06458525      3.68432347
    C     -2.83939809      0.71333370      0.06460988      3.92865422
    H     -1.12114888      2.02579918      0.06453414      0.76822079
    C     -2.93467978     -0.71255888      0.06463665      4.09236588
    O     -1.14876713     -2.42227412      0.06458706      6.46723823
    C     -3.97334175      1.54080512      0.06465502      4.11776488
    C     -4.20068257     -1.31288749      0.06472036      4.04481430
    C     -5.22035793      0.91294058      0.06473578      4.06947795
    H     -3.88256428      2.63476887      0.06463229      0.91741459
    C     -5.33097319     -0.49034889      0.06477033      4.08908931
    H     -4.30062729     -2.40590376      0.06474963      0.91053149
    H     -6.13248080      1.52390326      0.06477649      0.92364365
    H     -6.33100141     -0.94453671      0.06483994      0.92396243
    C     -0.70991154     -0.04674959      0.06453548      4.02471601
    C      0.70998166      0.04685320      0.06453548      4.02475529
   30
Geometry Step: 6
    C      3.97338038     -1.54086033      0.06465502      4.11620641
    C      2.83939762     -0.71345879      0.06460988      3.92948437
    C      2.93482403      0.71238908      0.06463665      4.09363764
    C      4.20072805      1.31287011      0.06472036      4.04402790
    C      5.33099395      0.49034636      0.06477033      4.08821782
    C      5.22035817     -0.91293958      0.06473578      4.07038635
    H      3.88257107     -2.63477934      0.06463229      0.91735623
    H      4.30060912      2.40589482      0.06474963      0.91030224
    H      6.33100380      0.94453497      0.06483994      0.92389698
    H      6.13248064     -1.52390299      0.06477649      0.92351237
    N      1.50552495     -1.06680569      0.06454871      5.03448008
    H      1.12111819     -2.02578891      0.06453414      0.76780050
    C      1.56168224      1.23817112      0.06458525      3.68087660
    O      1.14926267      2.42245110      0.06458705      6.47318675
    N     -1.50555385      1.06682242      0.06454871      5.03449504
    C     -1.56142703     -1.23808740      0.06458525      3.68085693
    C     -2.83939809      0.71333370      0.06460988      3.92948493
    H     -1.12114888      2.02579918      0.06453414      0.76781184
    C     -2.93467978     -0.71255888      0.06463665      4.09365096
    O     -1.14876713     -2.42227412      0.06458706      6.47321492
    C     -3.97334175      1.54080512      0.06465502      4.11620969
    C     -4.20068257     -1.31288749      0.06472036      4.04402196
    C     -5.22035793      0.91294058      0.06473578      4.07039018
    H     -3.88256428      2.63476887      0.06463229      0.91735904
    C     -5.33097319     -0.49034889      0.06477033      4.08821981
    H     -4.30062729     -2.40590376      0.06474963      0.91031958
    H     -6.13248080      1.52390326      0.06477649      0.92350692
    H     -6.33100141     -0.94453671      0.06483994      0.92389613
    C     -0.70991154     -0.04674959      0.06453548      4.02657720
    C      0.70998166      0.04685320      0.06453548      4.02661262
   30
Geometry Step: 7
    C      3.97353754     -1.54085845      0.06465493      4.11778320
    C      2.83970672     -0.71345783      0.06460994      3.92863431
    C      2.93503295      0.71217846      0.06463660      4.09244730
    C      4.20080080      1.31289361      0.06472050      4.04479830
    C      5.33097349      0.49038457      0.06477049      4.08911327
    C      5.22036457     -0.91283395      0.06473580      4.06945880
    H      3.88255299     -2.63462119      0.06463225      0.91739297
    H      4.30059732      2.40585530      0.06474978      0.91049836
    H      6.33090163      0.94452705      0.06484016      0.92396719
    H      6.13234920     -1.52383033      0.06477654      0.92365959
    N      1.50584547     -1.06667505      0.06454842      5.03765295
    H      1.12106077     -2.02571681      0.06453397      0.76825578
    C      1.56167677      1.23795787      0.06458523      3.68431016
    O      1.14963137      2.42217104      0.06458693      6.46715251
    N     -1.50585634      1.06668568      0.06454842      5.03766345
    C     -1.56149034     -1.23796144      0.06458523      3.68430754
    C     -2.83970177      0.71339345      0.06460994      3.92863624
    H     -1.12107902      2.02572112      0.06453397      0.76827135
    C     -2.93494445     -0.71229061      0.06463660      4.09246170
    O     -1.14893997     -2.42201101      0.06458693      6.46717811
    C     -3.97351956      1.54083278      0.06465493      4.11778607
    C     -4.20078034     -1.31290305      0.06472050      4.04480089
    C     -5.22036519      0.91283336      0.06473580      4.06945955
    H     -3.88254955      2.63461626      0.06463225      0.91739282
    C     -5.33096542     -0.49038435      0.06477049      4.08911358
    H     -4.30060646     -2.40585932      0.06474978      0.91051191
    H     -6.13234939      1.52383061      0.06477654      0.92365676
    H     -6.33090021     -0.94452775      0.06484016      0.92396522
    C     -0.71020671     -0.04660660      0.06453548      4.02481547
    C      0.71022416      0.04665798      0.06453547      4.02485464
   30
Geometry Step: 7
    C      3.97353754     -1.54085845      0.06465493      4.11622710
    C      2.83970672     -0.71345783      0.06460994      3.92947024
    C      2.93503295      0.71217846      0.06463660      4.09372914