|===============================================================================
|
|  DFTB+ development version (commit: e41035fc, base: 24.1)
|
|  Copyright (C) 2006 - 2025  DFTB+ developers group
|
|===============================================================================
|
|  When publishing results obtained with DFTB+, please cite the following
|  reference:
|
|  * DFTB+, a software package for efficient approximate density functional
|    theory based atomistic simulations, J. Chem. Phys. 152, 124101 (2020).
|    [doi: 10.1063/1.5143190]
|
|  You should also cite additional publications crediting the parametrization
|  data you use. Please consult the documentation of the SK-files for the
|  references.
|
|===============================================================================

Reading input file 'dftb_in.hsd'
Parser version: 14

--------------------------------------------------------------------------------
***  Converting input from parser version  7 to parser version 14 ...
***  Done.

Reading SK-files:
./C-C.skf
./C-H.skf
./C-N.skf
./C-O.skf
./H-H.skf
./H-N.skf
./H-O.skf
./N-N.skf
./N-O.skf
./O-O.skf
Done.
WARNING!
-> This driver is deprecated and will be removed in future versions.
Please use the GeometryOptimisation driver instead.
Path: dftbplusinput/Driver/ConjugateGradient
Line: 36-40 (File: dftb_in.hsd)



Processed input in HSD format written to 'dftb_pin.hsd'

Starting initialization...
--------------------------------------------------------------------------------
MPI processes:               1
OpenMP threads:              1
BLACS orbital grid size:     1 x 1
BLACS atom grid size:        1 x 1
Chosen random seed:          1415724487
Current stacksize:           8 [Mb] (recommended: unlimited)
WARNING!
-> Current stacksize not set to unlimited or hard limit, which might cause
   random crashes (e.g. segmentation faults). It is advised to unlimit the
   stacksize by issuing 'ulimit -s unlimited' (Linux) or setting it to the 
   hard limit by 'ulimit -s hard' (Mac) in advance.
Mode:                        Conjugate gradient relaxation
Self consistent charges:     Yes
SCC-tolerance:                 0.100000E-07
Max. scc iterations:                    100
Shell resolved Hubbard:      No
Spin polarisation:           Yes
Nr. of up electrons:            48.000000
Nr. of down electrons:          48.000000
Periodic boundaries:         No
Electronic solver:           Relatively robust
Mixer:                       Broyden mixer
Mixing parameter:                  0.200000
Nr. of chrg. vec. in memory:            100
Max. SCC-cycles:                        100
Nr. of moved atoms:                      30
Max. nr. of geometry steps:             200
Force tolerance:               0.100000E-05
Electronic temperature:              0.100000E-07 H      0.272114E-06 eV
Initial charges:             Set automatically (system chrg:   0.000E+00)
Included shells:             C:  s, p
                             H:  s
                             N:  s, p
                             O:  s, p
Spin coupling constants:     C   1(s)-1(s):  -0.230000E-01
                             C   1(s)-2(p):  -0.230000E-01
                             C   2(p)-1(s):  -0.230000E-01
                             C   2(p)-2(p):  -0.230000E-01
                             H   1(s)-1(s):  -0.720000E-01
                             N   1(s)-1(s):  -0.260000E-01
                             N   1(s)-2(p):  -0.260000E-01
                             N   2(p)-1(s):  -0.260000E-01
                             N   2(p)-2(p):  -0.260000E-01
                             O   1(s)-1(s):  -0.280000E-01
                             O   1(s)-2(p):  -0.280000E-01
                             O   2(p)-1(s):  -0.280000E-01
                             O   2(p)-2(p):  -0.280000E-01
Extra options:
                             Mulliken analysis
Force type                   original

--------------------------------------------------------------------------------

***  Geometry step: 0

 Determinant S0
 iSCC Total electronic   Diff electronic      SCC error    
    1   -0.44263574E+02    0.00000000E+00    0.51493689E+00
    2   -0.44140759E+02   -0.44263574E+02    0.44503765E+00
    3   -0.44304782E+02    0.12281519E+00    0.20622850E+00
    4   -0.44344853E+02   -0.16402343E+00    0.16822348E-01
    5   -0.44345004E+02   -0.40071268E-01    0.82952260E-02
    6   -0.44345131E+02   -0.15070733E-03    0.20861283E-02
    7   -0.44345140E+02   -0.12700741E-03    0.73156921E-03
    8   -0.44345141E+02   -0.91912919E-05    0.27524835E-03
    9   -0.44345141E+02   -0.49375247E-06    0.14151610E-03
   10   -0.44345141E+02   -0.28576359E-07    0.58842454E-04
   11   -0.44345141E+02   -0.14449320E-07    0.24424977E-04
   12   -0.44345141E+02   -0.10499548E-08    0.49423641E-05
   13   -0.44345141E+02   -0.13874768E-09    0.12431768E-05
   14   -0.44345141E+02   -0.32549963E-10    0.14925596E-05
   15   -0.44345141E+02   -0.14210855E-12    0.66131318E-07
   16   -0.44345141E+02   -0.10444978E-11    0.15556238E-07
   17   -0.44345141E+02    0.00000000E+00    0.12505528E-07
   18   -0.44345141E+02    0.00000000E+00    0.31968468E-08
 Determinant T1
 iSCC Total electronic   Diff electronic      SCC error    
    1   -0.44292585E+02    0.00000000E+00    0.15346995E+00
    2   -0.44232483E+02   -0.44292585E+02    0.35571012E+00
    3   -0.44295128E+02    0.60102056E-01    0.54251560E-01
    4   -0.44295870E+02   -0.62645148E-01    0.34245069E-01
    5   -0.44296232E+02   -0.74205738E-03    0.11185344E-01
    6   -0.44296233E+02   -0.36226346E-03    0.37358354E-02
    7   -0.44296242E+02   -0.47466764E-06    0.15421945E-02
    8   -0.44296243E+02   -0.90871685E-05    0.54598115E-03
    9   -0.44296243E+02   -0.12603341E-05    0.85320407E-03
   10   -0.44296244E+02   -0.18473107E-06    0.12955170E-03
   11   -0.44296244E+02   -0.22729182E-06    0.32108553E-04
   12   -0.44296244E+02   -0.95090655E-08    0.58543805E-04
   13   -0.44296244E+02    0.52074256E-09    0.22014891E-04
   14   -0.44296244E+02   -0.77782403E-09    0.10683903E-04
   15   -0.44296244E+02   -0.10492585E-09    0.31254131E-05
   16   -0.44296244E+02   -0.21557867E-10    0.13780002E-05
   17   -0.44296244E+02   -0.10444978E-11    0.50723019E-06
   18   -0.44296244E+02   -0.31974423E-12    0.28961671E-06
   19   -0.44296244E+02   -0.71054274E-14    0.27951266E-07
   20   -0.44296244E+02   -0.35527137E-13    0.90156695E-08
 Determinant S1
 iSCC Total electronic   Diff electronic      SCC error    
    1   -0.44289530E+02    0.00000000E+00    0.13768203E+00
    2   -0.44286773E+02   -0.44289530E+02    0.58331119E-01
    3   -0.44291383E+02    0.27572244E-02    0.35269961E-01
    4   -0.44292816E+02   -0.46099972E-02    0.12638114E-01
    5   -0.44292843E+02   -0.14330965E-02    0.41730897E-02
    6   -0.44292843E+02   -0.26714592E-04    0.25040101E-02
    7   -0.44292846E+02   -0.45178335E-06    0.75551708E-03
    8   -0.44292846E+02   -0.32375771E-05    0.23500530E-03
    9   -0.44292846E+02   -0.79506279E-07    0.17891739E-03
   10   -0.44292846E+02   -0.39402629E-07    0.91062663E-04
   11   -0.44292846E+02   -0.41466350E-08    0.19908463E-04
   12   -0.44292846E+02   -0.16907578E-08    0.10557676E-04
   13   -0.44292846E+02   -0.30892977E-09    0.75398977E-05
   14   -0.44292846E+02   -0.97699626E-11    0.23162135E-05
   15   -0.44292846E+02   -0.23462121E-10    0.53762336E-06
   16   -0.44292846E+02   -0.19184654E-11    0.18461477E-06
   17   -0.44292846E+02   -0.22026825E-12    0.12620046E-06
   18   -0.44292846E+02   -0.71054274E-14    0.18518685E-07
   19   -0.44292846E+02   -0.14210855E-13    0.12946067E-07
   20   -0.44292846E+02    0.71054274E-14    0.40949457E-08
 
Ground State Total Energy:         -42.6935166868 H        -1161.7497 eV
Ground State Extrapolated to 0K    -42.6935166868 H        -1161.7497 eV
 
Triplet State Total Energy:        -42.6446196998 H        -1160.4191 eV
Triplet State Extrapolated to 0    -42.6446196998 H        -1160.4191 eV
 
Purified State Total Energy:       -42.6378253270 H        -1160.2343 eV
Purified Extrapolated 0K:          -42.6378253270 H        -1160.2343 eV
 
S0 -> T1:                            0.0488969870 H            1.3306 eV
S0 -> S1:                            0.0556913598 H            1.5154 eV
 
Maximal force component:             0.444985E-02
Averaged force norm:                 0.153141E-02

--------------------------------------------------------------------------------

***  Geometry step: 1

 Determinant S0
 iSCC Total electronic   Diff electronic      SCC error    
    1   -0.44358926E+02    0.00000000E+00    0.64725876E-02
    2   -0.44358988E+02   -0.13785787E-01    0.27496193E-02
    3   -0.44359011E+02   -0.61085027E-04    0.18465475E-02
    4   -0.44359011E+02   -0.23225108E-04    0.39719409E-03
    5   -0.44359011E+02   -0.43656834E-06    0.15256095E-03
    6   -0.44359011E+02   -0.10650713E-06    0.71721278E-04
    7   -0.44359011E+02   -0.17651224E-07    0.30548375E-04
    8   -0.44359011E+02   -0.11110686E-08    0.88494349E-05
    9   -0.44359011E+02   -0.48345328E-09    0.14647413E-05
   10   -0.44359011E+02   -0.68467898E-10    0.28916900E-06
   11   -0.44359011E+02   -0.42987836E-11    0.97289430E-07
   12   -0.44359011E+02   -0.78159701E-13    0.28533228E-07
   13   -0.44359011E+02   -0.71054274E-14    0.33994139E-08
 Determinant T1
 iSCC Total electronic   Diff electronic      SCC error    
    1   -0.44305591E+02    0.00000000E+00    0.10964692E-01
    2   -0.44305621E+02   -0.93471141E-02    0.74146573E-02
    3   -0.44305633E+02   -0.30539955E-04    0.65545025E-02
    4   -0.44305634E+02   -0.11448366E-04    0.63333562E-03
    5   -0.44305634E+02   -0.73651117E-06    0.42130245E-03
    6   -0.44305634E+02   -0.14088813E-06    0.23667977E-03
    7   -0.44305634E+02   -0.10642815E-07    0.73399464E-04
    8   -0.44305634E+02   -0.58182152E-08    0.32405452E-04
    9   -0.44305634E+02   -0.13333832E-08    0.73138515E-05
   10   -0.44305634E+02   -0.28052938E-09    0.38068840E-05
   11   -0.44305634E+02   -0.12867929E-10    0.17691603E-05
   12   -0.44305634E+02   -0.24158453E-11    0.10060203E-05
   13   -0.44305634E+02   -0.85975671E-12    0.40303104E-06
   14   -0.44305634E+02   -0.29132252E-12    0.11657263E-06
   15   -0.44305634E+02   -0.85265128E-13    0.39167072E-07
   16   -0.44305634E+02    0.00000000E+00    0.24140201E-07
   17   -0.44305634E+02    0.71054274E-14    0.95628372E-08
 Determinant S1
 iSCC Total electronic   Diff electronic      SCC error    
    1   -0.44302543E+02    0.00000000E+00    0.56778666E-02
    2   -0.44302576E+02   -0.96964197E-02    0.36999163E-02
    3   -0.44302588E+02   -0.33296508E-04    0.24059882E-02
    4   -0.44302589E+02   -0.12118845E-04    0.51612637E-03
    5   -0.44302589E+02   -0.33772331E-06    0.23103788E-03
    6   -0.44302589E+02   -0.11753919E-06    0.15134524E-03
    7   -0.44302589E+02   -0.11236423E-07    0.77670394E-04
    8   -0.44302589E+02   -0.11328609E-07    0.28519138E-04
    9   -0.44302589E+02   -0.23283775E-08    0.11331639E-04
   10   -0.44302589E+02   -0.45564974E-09    0.44964625E-05
   11   -0.44302589E+02   -0.23881341E-10    0.21953905E-05
   12   -0.44302589E+02   -0.54711791E-11    0.10345287E-05
   13   -0.44302589E+02   -0.11439738E-11    0.50243641E-06
   14   -0.44302589E+02   -0.29842795E-12    0.12387282E-06
   15   -0.44302589E+02   -0.92370556E-13    0.29895810E-07
   16   -0.44302589E+02    0.00000000E+00    0.21315930E-07
   17   -0.44302589E+02    0.71054274E-14    0.75327056E-08
 
Ground State Total Energy:         -42.6965013145 H        -1161.8309 eV
Ground State Extrapolated to 0K    -42.6965013145 H        -1161.8309 eV
 
Triplet State Total Energy:        -42.6431236654 H        -1160.3784 eV
Triplet State Extrapolated to 0    -42.6431236654 H        -1160.3784 eV
 
Purified State Total Energy:       -42.6370339283 H        -1160.2127 eV
Purified Extrapolated 0K:          -42.6370339283 H        -1160.2127 eV
 
S0 -> T1:                            0.0533776491 H            1.4525 eV
S0 -> S1:                            0.0594673862 H            1.6182 eV
 
Maximal force component:             0.270278E-01
Averaged force norm:                 0.860903E-02

--------------------------------------------------------------------------------

***  Geometry step: 2

 Determinant S0
 iSCC Total electronic   Diff electronic      SCC error    
    1   -0.44347127E+02    0.00000000E+00    0.56757116E-02
    2   -0.44347173E+02    0.11884676E-01    0.23037623E-02
    3   -0.44347190E+02   -0.46120659E-04    0.15659404E-02
    4   -0.44347190E+02   -0.16938234E-04    0.38108334E-03
    5   -0.44347190E+02   -0.34000426E-06    0.15130814E-03
    6   -0.44347190E+02   -0.54258230E-07    0.54914230E-04
    7   -0.44347190E+02   -0.16337260E-07    0.23985616E-04
    8   -0.44347190E+02   -0.19054767E-08    0.83789074E-05
    9   -0.44347190E+02   -0.10007284E-09    0.13816191E-05
   10   -0.44347190E+02   -0.52146731E-10    0.26497708E-06
   11   -0.44347190E+02   -0.35811354E-11    0.48187287E-07
   12   -0.44347190E+02   -0.63948846E-13    0.27646184E-07
   13   -0.44347190E+02    0.71054274E-14    0.34870919E-08
 Determinant T1
 iSCC Total electronic   Diff electronic      SCC error    
    1   -0.44297582E+02    0.00000000E+00    0.92806116E-02
    2   -0.44297605E+02    0.80520722E-02    0.62727412E-02
    3   -0.44297613E+02   -0.23144886E-04    0.56276480E-02
    4   -0.44297614E+02   -0.85593119E-05    0.55362999E-03
    5   -0.44297614E+02   -0.47100217E-06    0.36267953E-03
    6   -0.44297614E+02   -0.11190875E-06    0.19081346E-03
    7   -0.44297614E+02   -0.60863314E-08    0.59511239E-04
    8   -0.44297614E+02   -0.35546890E-08    0.28068870E-04
    9   -0.44297614E+02   -0.90025054E-09    0.58984661E-05
   10   -0.44297614E+02   -0.20167334E-09    0.32096871E-05
   11   -0.44297614E+02   -0.10203394E-10    0.14332220E-05
   12   -0.44297614E+02   -0.20747848E-11    0.92823058E-06
   13   -0.44297614E+02   -0.55422333E-12    0.31914161E-06
   14   -0.44297614E+02   -0.23447910E-12    0.91861188E-07
   15   -0.44297614E+02   -0.63948846E-13    0.34382293E-07
   16   -0.44297614E+02    0.00000000E+00    0.17589100E-07
   17   -0.44297614E+02    0.00000000E+00    0.51978930E-08
 Determinant S1
 iSCC Total electronic   Diff electronic      SCC error    
    1   -0.44294237E+02    0.00000000E+00    0.49624770E-02
    2   -0.44294262E+02    0.83515498E-02    0.31260989E-02
    3   -0.44294271E+02   -0.24853452E-04    0.20128185E-02
    4   -0.44294271E+02   -0.88700272E-05    0.43643616E-03
    5   -0.44294271E+02   -0.24550756E-06    0.21684114E-03
    6   -0.44294271E+02   -0.83760149E-07    0.11787339E-03
    7   -0.44294271E+02   -0.14477550E-07    0.60271980E-04
    8   -0.44294271E+02   -0.48354920E-08    0.24704055E-04
    9   -0.44294271E+02   -0.17242385E-08    0.10620430E-04
   10   -0.44294271E+02   -0.32611069E-09    0.40476196E-05
   11   -0.44294271E+02   -0.21536550E-10    0.17730646E-05
   12   -0.44294271E+02   -0.61817218E-11    0.10843605E-05
   13   -0.44294271E+02   -0.52580162E-12    0.48579417E-06
   14   -0.44294271E+02   -0.29842795E-12    0.92498281E-07
   15   -0.44294271E+02   -0.71054274E-13    0.53309455E-07
   16   -0.44294271E+02   -0.14210855E-13    0.17299225E-07
   17   -0.44294271E+02    0.00000000E+00    0.10088224E-07
   18   -0.44294271E+02   -0.71054274E-14    0.30864293E-08
 
Ground State Total Energy:         -42.6941139502 H        -1161.7660 eV
Ground State Extrapolated to 0K    -42.6941139502 H        -1161.7660 eV
 
Triplet State Total Energy:        -42.6445377309 H        -1160.4169 eV
Triplet State Extrapolated to 0    -42.6445377309 H        -1160.4169 eV
 
Purified State Total Energy:       -42.6378525911 H        -1160.2350 eV
Purified Extrapolated 0K:          -42.6378525911 H        -1160.2350 eV
 
S0 -> T1:                            0.0495762193 H            1.3490 eV
S0 -> S1:                            0.0562613591 H            1.5309 eV
 
Maximal force component:             0.383509E-03
Averaged force norm:                 0.222583E-03

--------------------------------------------------------------------------------

***  Geometry step: 3

 Determinant S0
 iSCC Total electronic   Diff electronic      SCC error    
    1   -0.44347733E+02    0.00000000E+00    0.88401671E-03
    2   -0.44347733E+02   -0.54258194E-03    0.57512580E-03
    3   -0.44347733E+02   -0.26495685E-06    0.22429689E-03
    4   -0.44347733E+02   -0.13724092E-06    0.76239843E-04
    5   -0.44347733E+02   -0.66043100E-08    0.22705368E-04
    6   -0.44347733E+02   -0.58914651E-09    0.65188511E-05
    7   -0.44347733E+02   -0.36198600E-09    0.17575639E-05
    8   -0.44347733E+02   -0.30638603E-10    0.61224634E-06
    9   -0.44347733E+02   -0.18545165E-11    0.15282560E-06
   10   -0.44347733E+02   -0.18474111E-12    0.32834129E-07
   11   -0.44347733E+02   -0.28421709E-13    0.37419431E-08
 Determinant T1
 iSCC Total electronic   Diff electronic      SCC error    
    1   -0.44298209E+02    0.00000000E+00    0.86972316E-03
    2   -0.44298210E+02   -0.59532212E-03    0.56836898E-03
    3   -0.44298210E+02   -0.78742416E-06    0.57792918E-03
    4   -0.44298210E+02   -0.22017175E-06    0.20947866E-03
    5   -0.44298210E+02   -0.16261865E-07    0.50043748E-04
    6   -0.44298210E+02   -0.42959414E-08    0.95012970E-05
    7   -0.44298210E+02   -0.57288929E-09    0.49989669E-05
    8   -0.44298210E+02   -0.33871572E-10    0.33053596E-05
    9   -0.44298210E+02   -0.66151529E-11    0.10971597E-05
   10   -0.44298210E+02   -0.19824142E-11    0.48801211E-06
   11   -0.44298210E+02   -0.33395509E-12    0.21982595E-06
   12   -0.44298210E+02   -0.56843419E-13    0.64457826E-07
   13   -0.44298210E+02   -0.14210855E-13    0.25888156E-07
   14   -0.44298210E+02   -0.71054274E-14    0.10270046E-07
   15   -0.44298210E+02    0.71054274E-14    0.50000535E-08
 Determinant S1
 iSCC Total electronic   Diff electronic      SCC error    
    1   -0.44294875E+02    0.00000000E+00    0.86939036E-03
    2   -0.44294876E+02   -0.60352261E-03    0.58060400E-03
    3   -0.44294876E+02   -0.86917377E-06    0.31330679E-03
    4   -0.44294876E+02   -0.23130454E-06    0.13351646E-03
    5   -0.44294876E+02   -0.17486983E-07    0.46724929E-04
    6   -0.44294876E+02   -0.27159288E-08    0.91578329E-05
    7   -0.44294876E+02   -0.39575099E-09    0.65541295E-05
    8   -0.44294876E+02   -0.33757885E-10    0.33606781E-05
    9   -0.44294876E+02   -0.70627948E-11    0.13054046E-05
   10   -0.44294876E+02   -0.19682034E-11    0.57889555E-06
   11   -0.44294876E+02   -0.29842795E-12    0.16704227E-06
   12   -0.44294876E+02   -0.92370556E-13    0.64682466E-07
   13   -0.44294876E+02   -0.71054274E-14    0.31400505E-07
   14   -0.44294876E+02    0.00000000E+00    0.10743860E-07
   15   -0.44294876E+02    0.14210855E-13    0.74685871E-08
 
Ground State Total Energy:         -42.6940350758 H        -1161.7638 eV
Ground State Extrapolated to 0K    -42.6940350758 H        -1161.7638 eV
 
Triplet State Total Energy:        -42.6445122157 H        -1160.4162 eV
Triplet State Extrapolated to 0    -42.6445122157 H        -1160.4162 eV
 
Purified State Total Energy:       -42.6378436615 H        -1160.2348 eV
Purified Extrapolated 0K:          -42.6378436615 H        -1160.2348 eV
 
S0 -> T1:                            0.0495228601 H            1.3476 eV
S0 -> S1:                            0.0561914143 H            1.5290 eV
 
Maximal force component:             0.197471E-02
Averaged force norm:                 0.905869E-03

--------------------------------------------------------------------------------

***  Geometry step: 4

 Determinant S0
 iSCC Total electronic   Diff electronic      SCC error    
    1   -0.44347316E+02    0.00000000E+00    0.67793183E-03
    2   -0.44347317E+02    0.41673486E-03    0.44119441E-03
    3   -0.44347317E+02   -0.15596152E-06    0.17237617E-03
    4   -0.44347317E+02   -0.80797712E-07    0.58479829E-04
    5   -0.44347317E+02   -0.38864414E-08    0.17424495E-04
    6   -0.44347317E+02   -0.35121417E-09    0.49492796E-05
    7   -0.44347317E+02   -0.21092461E-09    0.13210513E-05
    8   -0.44347317E+02   -0.17550406E-10    0.40414481E-06
    9   -0.44347317E+02   -0.11368684E-11    0.11396777E-06
   10   -0.44347317E+02   -0.56843419E-13    0.25276412E-07
   11   -0.44347317E+02   -0.71054274E-14    0.28758762E-08
 Determinant T1
 iSCC Total electronic   Diff electronic      SCC error    
    1   -0.44297752E+02    0.00000000E+00    0.66658177E-03
    2   -0.44297753E+02    0.45819585E-03    0.43590691E-03
    3   -0.44297753E+02   -0.46389990E-06    0.44377162E-03
    4   -0.44297753E+02   -0.12971412E-06    0.16044449E-03
    5   -0.44297753E+02   -0.95217203E-08    0.38405012E-04
    6   -0.44297753E+02   -0.25177016E-08    0.73498921E-05
    7   -0.44297753E+02   -0.33174530E-09    0.38580148E-05
    8   -0.44297753E+02   -0.23916868E-10    0.25240503E-05
    9   -0.44297753E+02   -0.18474111E-11    0.83760340E-06
   10   -0.44297753E+02   -0.11723955E-11    0.38215781E-06
   11   -0.44297753E+02   -0.19895197E-12    0.16906423E-06
   12   -0.44297753E+02   -0.28421709E-13    0.49613206E-07
   13   -0.44297753E+02   -0.14210855E-13    0.18685960E-07
   14   -0.44297753E+02   -0.71054274E-14    0.70015784E-08
 Determinant S1
 iSCC Total electronic   Diff electronic      SCC error    
    1   -0.44294411E+02    0.00000000E+00    0.66638913E-03
    2   -0.44294412E+02    0.46460745E-03    0.44523615E-03
    3   -0.44294412E+02   -0.51176703E-06    0.24049444E-03
    4   -0.44294412E+02   -0.13618044E-06    0.10216590E-03
    5   -0.44294412E+02   -0.10273645E-07    0.35903613E-04
    6   -0.44294412E+02   -0.15925892E-08    0.69650839E-05
    7   -0.44294412E+02   -0.22537705E-09    0.48727093E-05
    8   -0.44294412E+02   -0.22502888E-10    0.25048090E-05
    9   -0.44294412E+02   -0.29629632E-11    0.10035100E-05
   10   -0.44294412E+02   -0.10800250E-11    0.45183018E-06
   11   -0.44294412E+02   -0.19184654E-12    0.12839910E-06
   12   -0.44294412E+02   -0.42632564E-13    0.49948405E-07
   13   -0.44294412E+02   -0.71054274E-14    0.24141029E-07
   14   -0.44294412E+02   -0.71054274E-14    0.83718363E-08
 
Ground State Total Energy:         -42.6940987288 H        -1161.7655 eV
Ground State Extrapolated to 0K    -42.6940987288 H        -1161.7655 eV
 
Triplet State Total Energy:        -42.6445347724 H        -1160.4168 eV
Triplet State Extrapolated to 0    -42.6445347724 H        -1160.4168 eV
 
Purified State Total Energy:       -42.6378535032 H        -1160.2350 eV
Purified Extrapolated 0K:          -42.6378535032 H        -1160.2350 eV
 
S0 -> T1:                            0.0495639563 H            1.3487 eV
S0 -> S1:                            0.0562452256 H            1.5305 eV
 
Maximal force component:             0.256220E-03
Averaged force norm:                 0.122522E-03

--------------------------------------------------------------------------------

***  Geometry step: 5

 Determinant S0
 iSCC Total electronic   Diff electronic      SCC error    
    1   -0.44346878E+02    0.00000000E+00    0.82414583E-04
    2   -0.44346878E+02    0.43820910E-03    0.57006448E-04
    3   -0.44346878E+02   -0.25378668E-08    0.18060181E-04
    4   -0.44346878E+02   -0.12926904E-08    0.41368824E-05
    5   -0.44346878E+02   -0.79054985E-10    0.18687226E-05
    6   -0.44346878E+02   -0.65014660E-11    0.32993471E-06
    7   -0.44346878E+02   -0.34106051E-11    0.75556928E-07
    8   -0.44346878E+02   -0.92370556E-13    0.21681713E-07
    9   -0.44346878E+02   -0.21316282E-13    0.13466296E-07
   10   -0.44346878E+02    0.71054274E-14    0.30073389E-08
 Determinant T1
 iSCC Total electronic   Diff electronic      SCC error    
    1   -0.44297290E+02    0.00000000E+00    0.12969428E-03
    2   -0.44297290E+02    0.46282138E-03    0.98509911E-04
    3   -0.44297290E+02   -0.19292727E-08    0.34810424E-04
    4   -0.44297290E+02   -0.86371443E-09    0.10450080E-04
    5   -0.44297290E+02   -0.16436275E-09    0.22212141E-05
    6   -0.44297290E+02   -0.15724311E-10    0.78583162E-06
    7   -0.44297290E+02   -0.22524205E-11    0.27931761E-06
    8   -0.44297290E+02   -0.24868996E-12    0.15904992E-06
    9   -0.44297290E+02   -0.35527137E-13    0.82967688E-07
   10   -0.44297290E+02    0.00000000E+00    0.44350487E-07
   11   -0.44297290E+02   -0.21316282E-13    0.21608513E-07
   12   -0.44297290E+02    0.71054274E-14    0.42945911E-08
 Determinant S1
 iSCC Total electronic   Diff electronic      SCC error    
    1   -0.44293952E+02    0.00000000E+00    0.80121746E-04
    2   -0.44293952E+02    0.46035242E-03    0.59559545E-04
    3   -0.44293952E+02   -0.20916389E-08    0.24334921E-04
    4   -0.44293952E+02   -0.94213704E-09    0.89598598E-05
    5   -0.44293952E+02   -0.13557155E-09    0.32417207E-05
    6   -0.44293952E+02   -0.18729907E-10    0.15128928E-05
    7   -0.44293952E+02   -0.40785153E-11    0.46240554E-06
    8   -0.44293952E+02   -0.96633812E-12    0.21786057E-06
    9   -0.44293952E+02   -0.14210855E-12    0.12019580E-06
   10   -0.44293952E+02   -0.14210855E-13    0.60209054E-07
   11   -0.44293952E+02    0.71054274E-14    0.27682673E-07
   12   -0.44293952E+02    0.00000000E+00    0.58939474E-08
 
Ground State Total Energy:         -42.6941188770 H        -1161.7661 eV
Ground State Extrapolated to 0K    -42.6941188770 H        -1161.7661 eV
 
Triplet State Total Energy:        -42.6445303074 H        -1160.4167 eV
Triplet State Extrapolated to 0    -42.6445303074 H        -1160.4167 eV
 
Purified State Total Energy:       -42.6378539765 H        -1160.2350 eV
Purified Extrapolated 0K:          -42.6378539765 H        -1160.2350 eV
 
S0 -> T1:                            0.0495885696 H            1.3494 eV
S0 -> S1:                            0.0562649004 H            1.5310 eV
 
Maximal force component:             0.179420E-03
Averaged force norm:                 0.105337E-03

--------------------------------------------------------------------------------

***  Geometry step: 6

 Determinant S0
 iSCC Total electronic   Diff electronic      SCC error    
    1   -0.44346169E+02    0.00000000E+00    0.13333793E-03
    2   -0.44346169E+02    0.70928091E-03    0.92227510E-04
    3   -0.44346169E+02   -0.66506161E-08    0.29267760E-04
    4   -0.44346169E+02   -0.33855443E-08    0.66939626E-05
    5   -0.44346169E+02   -0.20717295E-09    0.30247008E-05
    6   -0.44346169E+02   -0.17131185E-10    0.53416499E-06
    7   -0.44346169E+02   -0.89528385E-11    0.12277967E-06
    8   -0.44346169E+02   -0.19895197E-12    0.37528660E-07
    9   -0.44346169E+02   -0.49737992E-13    0.23141679E-07
   10   -0.44346169E+02    0.71054274E-14    0.48497266E-08
 Determinant T1
 iSCC Total electronic   Diff electronic      SCC error    
    1   -0.44296541E+02    0.00000000E+00    0.21013549E-03
    2   -0.44296541E+02    0.74907399E-03    0.15961642E-03
    3   -0.44296541E+02   -0.50555684E-08    0.56398518E-04
    4   -0.44296541E+02   -0.22619560E-08    0.16956206E-04
    5   -0.44296541E+02   -0.43136339E-09    0.36131477E-05
    6   -0.44296541E+02   -0.41353587E-10    0.12783444E-05
    7   -0.44296541E+02   -0.59756644E-11    0.45319261E-06
    8   -0.44296541E+02   -0.66080474E-12    0.29146363E-06
    9   -0.44296541E+02   -0.63948846E-13    0.13757207E-06
   10   -0.44296541E+02   -0.21316282E-13    0.71916755E-07
   11   -0.44296541E+02   -0.14210855E-13    0.35174611E-07
   12   -0.44296541E+02    0.00000000E+00    0.69782227E-08
 Determinant S1
 iSCC Total electronic   Diff electronic      SCC error    
    1   -0.44293207E+02    0.00000000E+00    0.12962023E-03
    2   -0.44293207E+02    0.74507837E-03    0.96342231E-04
    3   -0.44293207E+02   -0.54811196E-08    0.39381568E-04
    4   -0.44293207E+02   -0.24676368E-08    0.14509903E-04
    5   -0.44293207E+02   -0.35502268E-09    0.52579436E-05
    6   -0.44293207E+02   -0.49226401E-10    0.24560987E-05
    7   -0.44293207E+02   -0.10714984E-10    0.75127056E-06
    8   -0.44293207E+02   -0.25650593E-11    0.40607501E-06
    9   -0.44293207E+02   -0.29132252E-12    0.20676201E-06
   10   -0.44293207E+02   -0.35527137E-13    0.97696840E-07
   11   -0.44293207E+02   -0.35527137E-13    0.44878408E-07
   12   -0.44293207E+02    0.00000000E+00    0.95577796E-08
 
Ground State Total Energy:         -42.6941497392 H        -1161.7669 eV
Ground State Extrapolated to 0K    -42.6941497392 H        -1161.7669 eV
 
Triplet State Total Energy:        -42.6445213741 H        -1160.4165 eV
Triplet State Extrapolated to 0    -42.6445213741 H        -1160.4165 eV
 
Purified State Total Energy:       -42.6378530356 H        -1160.2350 eV
Purified Extrapolated 0K:          -42.6378530356 H        -1160.2350 eV
 
S0 -> T1:                            0.0496283651 H            1.3505 eV
S0 -> S1:                            0.0562967036 H            1.5319 eV
 
Maximal force component:             0.728121E-03
Averaged force norm:                 0.324137E-03

--------------------------------------------------------------------------------

***  Geometry step: 7

 Determinant S0
 iSCC Total electronic   Diff electronic      SCC error    
    1   -0.44346840E+02    0.00000000E+00    0.12612796E-03
    2   -0.44346840E+02   -0.67094663E-03    0.87246920E-04
    3   -0.44346840E+02   -0.59477543E-08    0.27666843E-04
    4   -0.44346840E+02   -0.30289016E-08    0.63454588E-05
    5   -0.44346840E+02   -0.18524560E-09    0.28626247E-05
    6   -0.44346840E+02   -0.15205615E-10    0.50465754E-06
    7   -0.44346840E+02   -0.80149221E-11    0.11684589E-06
    8   -0.44346840E+02   -0.20605739E-12    0.35304957E-07
    9   -0.44346840E+02   -0.42632564E-13    0.21772476E-07
   10   -0.44346840E+02    0.71054274E-14    0.46237692E-08
 Determinant T1
 iSCC Total electronic   Diff electronic      SCC error    
    1   -0.44297249E+02    0.00000000E+00    0.19877963E-03
    2   -0.44297249E+02   -0.70859328E-03    0.15099442E-03
    3   -0.44297249E+02   -0.45201958E-08    0.53354954E-04
    4   -0.44297249E+02   -0.20236541E-08    0.16023428E-04
    5   -0.44297249E+02   -0.38598813E-09    0.34088398E-05
    6   -0.44297249E+02   -0.36905590E-10    0.12038102E-05
    7   -0.44297249E+02   -0.53290705E-11    0.43185146E-06
    8   -0.44297249E+02   -0.58264504E-12    0.27428231E-06
    9   -0.44297249E+02   -0.71054274E-13    0.13068414E-06
   10   -0.44297249E+02   -0.14210855E-13    0.67969229E-07
   11   -0.44297249E+02    0.00000000E+00    0.33120154E-07
   12   -0.44297249E+02   -0.71054274E-14    0.65812427E-08
 Determinant S1
 iSCC Total electronic   Diff electronic      SCC error    
    1   -0.44293911E+02    0.00000000E+00    0.12261169E-03
    2   -0.44293911E+02   -0.70481247E-03    0.91137257E-04
    3   -0.44293911E+02   -0.49002153E-08    0.37240016E-04
    4   -0.44293911E+02   -0.22076492E-08    0.13715304E-04
    5   -0.44293911E+02   -0.31764813E-09    0.49646041E-05
    6   -0.44293911E+02   -0.43932857E-10    0.23143453E-05
    7   -0.44293911E+02   -0.95354835E-11    0.69305583E-06
    8   -0.44293911E+02   -0.22950530E-11    0.39120132E-06
    9   -0.44293911E+02   -0.27711167E-12    0.19503709E-06
   10   -0.44293911E+02   -0.21316282E-13    0.92121669E-07
   11   -0.44293911E+02   -0.28421709E-13    0.42288508E-07
   12   -0.44293911E+02    0.71054274E-14    0.90176337E-08
 
Ground State Total Energy:         -42.6941205994 H        -1161.7661 eV
Ground State Extrapolated to 0K    -42.6941205994 H        -1161.7661 eV
 
Triplet State Total Energy:        -42.6445298787 H        -1160.4167 eV
Triplet State Extrapolated to 0    -42.6445298787 H        -1160.4167 eV
 
Purified State Total Energy:       -42.6378539796 H        -1160.2350 eV
Purified Extrapolated 0K:          -42.6378539796 H        -1160.2350 eV
 
S0 -> T1:                            0.0495907207 H            1.3494 eV
S0 -> S1:                            0.0562666198 H            1.5311 eV
 
Maximal force component:             0.200399E-03
Averaged force norm:                 0.114035E-03

--------------------------------------------------------------------------------

***  Geometry step: 8

 Determinant S0
 iSCC Total electronic   Diff electronic      SCC error    
    1   -0.44346516E+02    0.00000000E+00    0.66314277E-04
    2   -0.44346516E+02    0.32426944E-03    0.38622404E-04
    3   -0.44346516E+02   -0.43761759E-08    0.15464352E-04
    4   -0.44346516E+02   -0.13282886E-08    0.43885145E-05
    5   -0.44346516E+02   -0.60367711E-10    0.23867135E-05
    6   -0.44346516E+02   -0.61817218E-11    0.34844465E-06
    7   -0.44346516E+02   -0.43343107E-11    0.10145935E-06
    8   -0.44346516E+02   -0.14210855E-12    0.19447705E-07
    9   -0.44346516E+02   -0.14210855E-13    0.91951566E-08
 Determinant T1
 iSCC Total electronic   Diff electronic      SCC error    
    1   -0.44296944E+02    0.00000000E+00    0.59155846E-04
    2   -0.44296944E+02    0.30534918E-03    0.34858800E-04
    3   -0.44296944E+02   -0.40622155E-08    0.21523316E-04
    4   -0.44296944E+02   -0.95811714E-09    0.58960985E-05
    5   -0.44296944E+02   -0.65313088E-10    0.21731832E-05
    6   -0.44296944E+02   -0.17116975E-10    0.85472917E-06
    7   -0.44296944E+02   -0.24797941E-11    0.25549682E-06
    8   -0.44296944E+02   -0.12789769E-12    0.11342225E-06
    9   -0.44296944E+02   -0.71054274E-14    0.49760287E-07
   10   -0.44296944E+02    0.00000000E+00    0.23745127E-07
   11   -0.44296944E+02   -0.71054274E-14    0.14047588E-07
   12   -0.44296944E+02    0.00000000E+00    0.34172791E-08
 Determinant S1
 iSCC Total electronic   Diff electronic      SCC error    
    1   -0.44293605E+02    0.00000000E+00    0.63467184E-04
    2   -0.44293605E+02    0.30606111E-03    0.40331954E-04
    3   -0.44293605E+02   -0.39978829E-08    0.21311037E-04
    4   -0.44293605E+02   -0.95391783E-09    0.58536021E-05
    5   -0.44293605E+02   -0.56694205E-10    0.16144785E-05
    6   -0.44293605E+02   -0.16100898E-10    0.81256997E-06
    7   -0.44293605E+02   -0.28990144E-11    0.25915501E-06
    8   -0.44293605E+02   -0.11368684E-12    0.11682391E-06
    9   -0.44293605E+02   -0.21316282E-13    0.58907503E-07
   10   -0.44293605E+02    0.14210855E-13    0.29702766E-07
   11   -0.44293605E+02   -0.21316282E-13    0.14349739E-07
   12   -0.44293605E+02    0.00000000E+00    0.63367798E-08
 
Ground State Total Energy:         -42.6941034781 H        -1161.7657 eV
Ground State Extrapolated to 0K    -42.6941034781 H        -1161.7657 eV
 
Triplet State Total Energy:        -42.6445316770 H        -1160.4167 eV
Triplet State Extrapolated to 0    -42.6445316770 H        -1160.4167 eV
 
Purified State Total Energy:       -42.6378543539 H        -1160.2350 eV
Purified Extrapolated 0K:          -42.6378543539 H        -1160.2350 eV
 
S0 -> T1:                            0.0495718011 H            1.3489 eV
S0 -> S1:                            0.0562491242 H            1.5306 eV
 
Maximal force component:             0.885823E-04
Averaged force norm:                 0.597119E-04

--------------------------------------------------------------------------------

***  Geometry step: 9

 Determinant S0
 iSCC Total electronic   Diff electronic      SCC error    
    1   -0.44345991E+02    0.00000000E+00    0.10728208E-03
    2   -0.44345991E+02    0.52509027E-03    0.62467526E-04
    3   -0.44345991E+02   -0.11454524E-07    0.25021498E-04
    4   -0.44345991E+02   -0.34760532E-08    0.71073029E-05
    5   -0.44345991E+02   -0.15788970E-09    0.38688121E-05
    6   -0.44345991E+02   -0.16186164E-10    0.56406116E-06
    7   -0.44345991E+02   -0.11333157E-10    0.16401671E-06
    8   -0.44345991E+02   -0.39790393E-12    0.31996024E-07
    9   -0.44345991E+02   -0.21316282E-13    0.18690027E-07
   10   -0.44345991E+02    0.14210855E-13    0.40384285E-08
 Determinant T1
 iSCC Total electronic   Diff electronic      SCC error    
    1   -0.44296450E+02    0.00000000E+00    0.95629456E-04
    2   -0.44296450E+02    0.49446322E-03    0.56350434E-04
    3   -0.44296450E+02   -0.10626785E-07    0.34825108E-04
    4   -0.44296450E+02   -0.25073206E-08    0.95490728E-05
    5   -0.44296450E+02   -0.17112711E-09    0.35140425E-05
    6   -0.44296450E+02   -0.44792614E-10    0.13822035E-05
    7   -0.44296450E+02   -0.65298877E-11    0.41152313E-06
    8   -0.44296450E+02   -0.25579538E-12    0.23673582E-06
    9   -0.44296450E+02   -0.49737992E-13    0.81513060E-07
   10   -0.44296450E+02   -0.14210855E-13    0.38800402E-07
   11   -0.44296450E+02    0.00000000E+00    0.22768020E-07
   12   -0.44296450E+02    0.71054274E-14    0.55260696E-08
 Determinant S1
 iSCC Total electronic   Diff electronic      SCC error    
    1   -0.44293110E+02    0.00000000E+00    0.10267425E-03
    2   -0.44293110E+02    0.49561498E-03    0.65250073E-04
    3   -0.44293110E+02   -0.10459779E-07    0.34468600E-04
    4   -0.44293110E+02   -0.24965132E-08    0.94657988E-05
    5   -0.44293110E+02   -0.14856028E-09    0.26109194E-05
    6   -0.44293110E+02   -0.42099657E-10    0.13146091E-05
    7   -0.44293110E+02   -0.75885964E-11    0.42076010E-06
    8   -0.44293110E+02   -0.31263880E-12    0.22458199E-06
    9   -0.44293110E+02   -0.56843419E-13    0.10130518E-06
   10   -0.44293110E+02   -0.14210855E-13    0.48109284E-07
   11   -0.44293110E+02    0.71054274E-14    0.23304226E-07
   12   -0.44293110E+02    0.00000000E+00    0.10310097E-07
   13   -0.44293110E+02   -0.14210855E-13    0.25833773E-08
 
Ground State Total Energy:         -42.6940744018 H        -1161.7649 eV
Ground State Extrapolated to 0K    -42.6940744018 H        -1161.7649 eV
 
Triplet State Total Energy:        -42.6445332260 H        -1160.4168 eV
Triplet State Extrapolated to 0    -42.6445332260 H        -1160.4168 eV
 
Purified State Total Energy:       -42.6378535990 H        -1160.2350 eV
Purified Extrapolated 0K:          -42.6378535990 H        -1160.2350 eV
 
S0 -> T1:                            0.0495411758 H            1.3481 eV
S0 -> S1:                            0.0562208028 H            1.5298 eV
 
Maximal force component:             0.448809E-03
Averaged force norm:                 0.223547E-03

--------------------------------------------------------------------------------

***  Geometry step: 10

 Determinant S0
 iSCC Total electronic   Diff electronic      SCC error    
    1   -0.44346489E+02    0.00000000E+00    0.10179502E-03
    2   -0.44346489E+02   -0.49827082E-03    0.59280717E-04
    3   -0.44346489E+02   -0.10312014E-07    0.23743766E-04
    4   -0.44346489E+02   -0.31302889E-08    0.67414076E-05
    5   -0.44346489E+02   -0.14219381E-09    0.36647926E-05
    6   -0.44346489E+02   -0.14637180E-10    0.53448244E-06
    7   -0.44346489E+02   -0.10182077E-10    0.15625999E-06
    8   -0.44346489E+02   -0.37658765E-12    0.30321528E-07
    9   -0.44346489E+02   -0.71054274E-14    0.16512531E-07
   10   -0.44346489E+02    0.71054274E-14    0.37710577E-08
 Determinant T1
 iSCC Total electronic   Diff electronic      SCC error    
    1   -0.44296919E+02    0.00000000E+00    0.90752768E-04
    2   -0.44296919E+02   -0.46921003E-03    0.53473009E-04
    3   -0.44296919E+02   -0.95717141E-08    0.33044962E-04
    4   -0.44296919E+02   -0.22577069E-08    0.90586065E-05
    5   -0.44296919E+02   -0.15401724E-09    0.33371744E-05
    6   -0.44296919E+02   -0.40337511E-10    0.13110847E-05
    7   -0.44296919E+02   -0.58761884E-11    0.39741034E-06
    8   -0.44296919E+02   -0.24158453E-12    0.21750429E-06
    9   -0.44296919E+02   -0.35527137E-13    0.75435484E-07
   10   -0.44296919E+02   -0.14210855E-13    0.36618387E-07
   11   -0.44296919E+02    0.21316282E-13    0.21577102E-07
   12   -0.44296919E+02   -0.14210855E-13    0.52433715E-08
 Determinant S1
 iSCC Total electronic   Diff electronic      SCC error    
    1   -0.44293580E+02    0.00000000E+00    0.97426017E-04
    2   -0.44293580E+02   -0.47030336E-03    0.61916593E-04
    3   -0.44293580E+02   -0.94215693E-08    0.32714169E-04
    4   -0.44293580E+02   -0.22480222E-08    0.89872718E-05
    5   -0.44293580E+02   -0.13370993E-09    0.24816555E-05
    6   -0.44293580E+02   -0.37907455E-10    0.12463349E-05
    7   -0.44293580E+02   -0.68354211E-11    0.39133058E-06
    8   -0.44293580E+02   -0.27000624E-12    0.22297278E-06
    9   -0.44293580E+02   -0.56843419E-13    0.92501648E-07
   10   -0.44293580E+02    0.00000000E+00    0.45275680E-07
   11   -0.44293580E+02   -0.71054274E-14    0.22164214E-07
   12   -0.44293580E+02   -0.71054274E-14    0.97431052E-08
 
Ground State Total Energy:         -42.6941020349 H        -1161.7656 eV
Ground State Extrapolated to 0K    -42.6941020349 H        -1161.7656 eV
 
Triplet State Total Energy:        -42.6445317968 H        -1160.4168 eV
Triplet State Extrapolated to 0    -42.6445317968 H        -1160.4168 eV
 
Purified State Total Energy:       -42.6378543561 H        -1160.2350 eV
Purified Extrapolated 0K:          -42.6378543561 H        -1160.2350 eV
 
S0 -> T1:                            0.0495702382 H            1.3489 eV
S0 -> S1:                            0.0562476789 H            1.5306 eV
 
Maximal force component:             0.939306E-04
Averaged force norm:                 0.639415E-04

--------------------------------------------------------------------------------

***  Geometry step: 11

 Determinant S0
 iSCC Total electronic   Diff electronic      SCC error    
    1   -0.44346553E+02    0.00000000E+00    0.15205096E-03
    2   -0.44346553E+02   -0.63932054E-04    0.91451918E-04
    3   -0.44346553E+02   -0.20242631E-07    0.27946555E-04
    4   -0.44346553E+02   -0.72786577E-08    0.11439597E-04
    5   -0.44346553E+02   -0.26157920E-09    0.54172727E-05
    6   -0.44346553E+02   -0.23355540E-10    0.12562488E-05
    7   -0.44346553E+02   -0.11986856E-10    0.39685165E-06
    8   -0.44346553E+02   -0.14637180E-11    0.64484814E-07
    9   -0.44346553E+02   -0.71054274E-13    0.35043862E-07
   10   -0.44346553E+02   -0.71054274E-14    0.70812773E-08
 Determinant T1
 iSCC Total electronic   Diff electronic      SCC error    
    1   -0.44296959E+02    0.00000000E+00    0.15596703E-03
    2   -0.44296959E+02   -0.40552393E-04    0.10081569E-03
    3   -0.44296959E+02   -0.13470938E-07    0.79480803E-04
    4   -0.44296959E+02   -0.50434750E-08    0.15820584E-04
    5   -0.44296959E+02   -0.13684343E-09    0.64156214E-05
    6   -0.44296959E+02   -0.78543394E-10    0.20264043E-05
    7   -0.44296959E+02   -0.12917667E-10    0.59746680E-06
    8   -0.44296959E+02   -0.81712415E-12    0.29608053E-06
    9   -0.44296959E+02   -0.15631940E-12    0.14787774E-06
   10   -0.44296959E+02   -0.21316282E-13    0.76625938E-07
   11   -0.44296959E+02    0.71054274E-14    0.28942479E-07
   12   -0.44296959E+02   -0.14210855E-13    0.89578882E-08
 Determinant S1
 iSCC Total electronic   Diff electronic      SCC error    
    1   -0.44293622E+02    0.00000000E+00    0.14847177E-03
    2   -0.44293622E+02   -0.41895150E-04    0.10097531E-03
    3   -0.44293622E+02   -0.13547094E-07    0.36722953E-04
    4   -0.44293622E+02   -0.50530033E-08    0.16429040E-04
    5   -0.44293622E+02   -0.14195933E-09    0.71529755E-05
    6   -0.44293622E+02   -0.41978865E-10    0.16860680E-05
    7   -0.44293622E+02   -0.90309982E-11    0.64519241E-06
    8   -0.44293622E+02   -0.79580786E-12    0.22106525E-06
    9   -0.44293622E+02   -0.12079227E-12    0.17757246E-06
   10   -0.44293622E+02   -0.28421709E-13    0.57749439E-07
   11   -0.44293622E+02   -0.14210855E-13    0.21785045E-07
   12   -0.44293622E+02    0.14210855E-13    0.84075591E-08
 
Ground State Total Energy:         -42.6941228359 H        -1161.7662 eV
Ground State Extrapolated to 0K    -42.6941228359 H        -1161.7662 eV
 
Triplet State Total Energy:        -42.6445292089 H        -1160.4167 eV
Triplet State Extrapolated to 0    -42.6445292089 H        -1160.4167 eV
 
Purified State Total Energy:       -42.6378544538 H        -1160.2351 eV
Purified Extrapolated 0K:          -42.6378544538 H        -1160.2351 eV
 
S0 -> T1:                            0.0495936269 H            1.3495 eV
S0 -> S1:                            0.0562683820 H            1.5311 eV
 
Maximal force component:             0.205197E-03
Averaged force norm:                 0.124933E-03

--------------------------------------------------------------------------------

***  Geometry step: 12

 Determinant S0
 iSCC Total electronic   Diff electronic      SCC error    
    1   -0.44346529E+02    0.00000000E+00    0.56463250E-04
    2   -0.44346529E+02    0.23735158E-04    0.33955630E-04
    3   -0.44346529E+02   -0.27930511E-08    0.10379623E-04
    4   -0.44346529E+02   -0.10039329E-08    0.42507143E-05
    5   -0.44346529E+02   -0.36095571E-10    0.20130550E-05
    6   -0.44346529E+02   -0.32116532E-11    0.46718080E-06
    7   -0.44346529E+02   -0.16413537E-11    0.14600020E-06
    8   -0.44346529E+02   -0.20605739E-12    0.26165873E-07
    9   -0.44346529E+02   -0.71054274E-14    0.72288509E-08
 Determinant T1
 iSCC Total electronic   Diff electronic      SCC error    
    1   -0.44296944E+02    0.00000000E+00    0.57928502E-04
    2   -0.44296944E+02    0.15049463E-04    0.37436225E-04
    3   -0.44296944E+02   -0.18584885E-08    0.29516100E-04
    4   -0.44296944E+02   -0.69582740E-09    0.58733638E-05
    5   -0.44296944E+02   -0.18850699E-10    0.23793911E-05
    6   -0.44296944E+02   -0.10857093E-10    0.75727087E-06
    7   -0.44296944E+02   -0.17692514E-11    0.22945493E-06
    8   -0.44296944E+02   -0.11368684E-12    0.77640452E-07
    9   -0.44296944E+02   -0.28421709E-13    0.47702259E-07
   10   -0.44296944E+02   -0.71054274E-14    0.27581017E-07
   11   -0.44296944E+02    0.00000000E+00    0.10752272E-07
   12   -0.44296944E+02    0.00000000E+00    0.33218763E-08
 Determinant S1
 iSCC Total electronic   Diff electronic      SCC error    
    1   -0.44293606E+02    0.00000000E+00    0.55139880E-04
    2   -0.44293606E+02    0.15547944E-04    0.37498752E-04
    3   -0.44293606E+02   -0.18689548E-08    0.13637574E-04
    4   -0.44293606E+02   -0.69707085E-09    0.60992683E-05
    5   -0.44293606E+02   -0.19575452E-10    0.26602811E-05
    6   -0.44293606E+02   -0.57980287E-11    0.62375889E-06
    7   -0.44293606E+02   -0.12434498E-11    0.23347955E-06
    8   -0.44293606E+02   -0.11368684E-12    0.88658839E-07
    9   -0.44293606E+02   -0.14210855E-13    0.51695505E-07
   10   -0.44293606E+02   -0.14210855E-13    0.21039139E-07
   11   -0.44293606E+02    0.00000000E+00    0.80667051E-08
 
Ground State Total Energy:         -42.6941152008 H        -1161.7660 eV
Ground State Extrapolated to 0K    -42.6941152008 H        -1161.7660 eV
 
Triplet State Total Energy:        -42.6445302583 H        -1160.4167 eV
Triplet State Extrapolated to 0    -42.6445302583 H        -1160.4167 eV
 
Purified State Total Energy:       -42.6378545063 H        -1160.2351 eV
Purified Extrapolated 0K:          -42.6378545063 H        -1160.2351 eV
 
S0 -> T1:                            0.0495849425 H            1.3493 eV
S0 -> S1:                            0.0562606945 H            1.5309 eV
 
Maximal force component:             0.975487E-04
Averaged force norm:                 0.748646E-04

--------------------------------------------------------------------------------

***  Geometry step: 13

 Determinant S0
 iSCC Total electronic   Diff electronic      SCC error    
    1   -0.44346539E+02    0.00000000E+00    0.47824335E-04
    2   -0.44346539E+02   -0.10174601E-04    0.28306035E-04
    3   -0.44346539E+02   -0.21883082E-08    0.11929904E-04
    4   -0.44346539E+02   -0.73181639E-09    0.22466658E-05
    5   -0.44346539E+02   -0.33196557E-10    0.10140771E-05
    6   -0.44346539E+02   -0.32329694E-11    0.32389886E-06
    7   -0.44346539E+02   -0.64659389E-12    0.12996151E-06
    8   -0.44346539E+02   -0.92370556E-13    0.16528218E-07
    9   -0.44346539E+02   -0.71054274E-14    0.42719646E-08
 Determinant T1
 iSCC Total electronic   Diff electronic      SCC error    
    1   -0.44296963E+02    0.00000000E+00    0.53254563E-04
    2   -0.44296963E+02   -0.18815784E-04    0.36854739E-04
    3   -0.44296963E+02   -0.11056116E-08    0.20245908E-04
    4   -0.44296963E+02   -0.41890758E-09    0.57111771E-05
    5   -0.44296963E+02   -0.39754866E-10    0.12336048E-05
    6   -0.44296963E+02   -0.54924953E-11    0.54873921E-06
    7   -0.44296963E+02   -0.34106051E-12    0.25621008E-06
    8   -0.44296963E+02   -0.17053026E-12    0.87284910E-07
    9   -0.44296963E+02   -0.71054274E-14    0.44331866E-07
   10   -0.44296963E+02   -0.71054274E-14    0.25508483E-07
   11   -0.44296963E+02   -0.71054274E-14    0.79107330E-08
 Determinant S1
 iSCC Total electronic   Diff electronic      SCC error    
    1   -0.44293625E+02    0.00000000E+00    0.46744354E-04
    2   -0.44293625E+02   -0.18951604E-04    0.31435661E-04
    3   -0.44293625E+02   -0.11115375E-08    0.13975490E-04
    4   -0.44293625E+02   -0.41838177E-09    0.46814606E-05
    5   -0.44293625E+02   -0.33338665E-10    0.11695082E-05
    6   -0.44293625E+02   -0.40500936E-11    0.42770654E-06
    7   -0.44293625E+02   -0.19895197E-12    0.18587912E-06
    8   -0.44293625E+02   -0.78159701E-13    0.90206244E-07
    9   -0.44293625E+02   -0.21316282E-13    0.43723917E-07
   10   -0.44293625E+02    0.00000000E+00    0.18418980E-07
   11   -0.44293625E+02   -0.71054274E-14    0.49332409E-08
 
Ground State Total Energy:         -42.6941064741 H        -1161.7657 eV
Ground State Extrapolated to 0K    -42.6941064741 H        -1161.7657 eV
 
Triplet State Total Energy:        -42.6445301715 H        -1160.4167 eV
Triplet State Extrapolated to 0    -42.6445301715 H        -1160.4167 eV
 
Purified State Total Energy:       -42.6378546910 H        -1160.2351 eV
Purified Extrapolated 0K:          -42.6378546910 H        -1160.2351 eV
 
S0 -> T1:                            0.0495763027 H            1.3490 eV
S0 -> S1:                            0.0562517831 H            1.5307 eV
 
Maximal force component:             0.773821E-04
Averaged force norm:                 0.518905E-04

--------------------------------------------------------------------------------

***  Geometry step: 14

 Determinant S0
 iSCC Total electronic   Diff electronic      SCC error    
    1   -0.44346556E+02    0.00000000E+00    0.77387437E-04
    2   -0.44346556E+02   -0.16370839E-04    0.45803522E-04
    3   -0.44346556E+02   -0.57292056E-08    0.19303122E-04
    4   -0.44346556E+02   -0.19157937E-08    0.36385050E-05
    5   -0.44346556E+02   -0.86927798E-10    0.16408516E-05
    6   -0.44346556E+02   -0.84270368E-11    0.52406229E-06
    7   -0.44346556E+02   -0.17266188E-11    0.21026518E-06
    8   -0.44346556E+02   -0.26290081E-12    0.26903770E-07
    9   -0.44346556E+02    0.00000000E+00    0.77105235E-08
 Determinant T1
 iSCC Total electronic   Diff electronic      SCC error    
    1   -0.44296994E+02    0.00000000E+00    0.86174491E-04
    2   -0.44296994E+02   -0.30358991E-04    0.59637968E-04
    3   -0.44296994E+02   -0.28943603E-08    0.32752130E-04
    4   -0.44296994E+02   -0.10965593E-08    0.92436209E-05
    5   -0.44296994E+02   -0.10412293E-09    0.19957258E-05
    6   -0.44296994E+02   -0.14424018E-10    0.88719739E-06
    7   -0.44296994E+02   -0.88107299E-12    0.41333079E-06
    8   -0.44296994E+02   -0.41922021E-12    0.17820402E-06
    9   -0.44296994E+02   -0.35527137E-13    0.74719485E-07
   10   -0.44296994E+02   -0.21316282E-13    0.41426282E-07
   11   -0.44296994E+02    0.14210855E-13    0.12731967E-07
   12   -0.44296994E+02    0.00000000E+00    0.51270415E-08
 Determinant S1
 iSCC Total electronic   Diff electronic      SCC error    
    1   -0.44293656E+02    0.00000000E+00    0.75647094E-04
    2   -0.44293656E+02   -0.30578767E-04    0.50873089E-04
    3   -0.44293656E+02   -0.29099994E-08    0.22615577E-04
    4   -0.44293656E+02   -0.10952661E-08    0.75764197E-05
    5   -0.44293656E+02   -0.87290175E-10    0.18929554E-05
    6   -0.44293656E+02   -0.10629719E-10    0.69219623E-06
    7   -0.44293656E+02   -0.51869620E-12    0.30476078E-06
    8   -0.44293656E+02   -0.21316282E-12    0.15906411E-06
    9   -0.44293656E+02   -0.28421709E-13    0.79506024E-07
   10   -0.44293656E+02    0.71054274E-14    0.29938682E-07
   11   -0.44293656E+02   -0.14210855E-13    0.79956965E-08
 
Ground State Total Energy:         -42.6940920701 H        -1161.7654 eV
Ground State Extrapolated to 0K    -42.6940920701 H        -1161.7654 eV
 
Triplet State Total Energy:        -42.6445297519 H        -1160.4167 eV
Triplet State Extrapolated to 0    -42.6445297519 H        -1160.4167 eV
 
Purified State Total Energy:       -42.6378547111 H        -1160.2351 eV
Purified Extrapolated 0K:          -42.6378547111 H        -1160.2351 eV
 
S0 -> T1:                            0.0495623182 H            1.3487 eV
S0 -> S1:                            0.0562373590 H            1.5303 eV
 
Maximal force component:             0.199395E-03
Averaged force norm:                 0.102913E-03

--------------------------------------------------------------------------------

***  Geometry step: 15

 Determinant S0
 iSCC Total electronic   Diff electronic      SCC error    
    1   -0.44346549E+02    0.00000000E+00    0.34203378E-04
    2   -0.44346549E+02    0.72261704E-05    0.20245289E-04
    3   -0.44346549E+02   -0.11189272E-08    0.85301181E-05
    4   -0.44346549E+02   -0.37421444E-09    0.16075484E-05
    5   -0.44346549E+02   -0.16981971E-10    0.72475451E-06
    6   -0.44346549E+02   -0.16342483E-11    0.23185348E-06
    7   -0.44346549E+02   -0.35527137E-12    0.92994531E-07
    8   -0.44346549E+02   -0.42632564E-13    0.12083681E-07
    9   -0.44346549E+02   -0.71054274E-14    0.31050671E-08
 Determinant T1
 iSCC Total electronic   Diff electronic      SCC error    
    1   -0.44296980E+02    0.00000000E+00    0.38085008E-04
    2   -0.44296980E+02    0.13406437E-04    0.26357732E-04
    3   -0.44296980E+02   -0.56523675E-09    0.14472640E-04
    4   -0.44296980E+02   -0.21413626E-09    0.40853694E-05
    5   -0.44296980E+02   -0.20342839E-10    0.88197112E-06
    6   -0.44296980E+02   -0.28208547E-11    0.39248294E-06
    7   -0.44296980E+02   -0.17763568E-12    0.18368014E-06
    8   -0.44296980E+02   -0.85265128E-13    0.53108623E-07
    9   -0.44296980E+02    0.00000000E+00    0.28085041E-07
   10   -0.44296980E+02    0.14210855E-13    0.18352767E-07
   11   -0.44296980E+02   -0.21316282E-13    0.56218890E-08
 Determinant S1
 iSCC Total electronic   Diff electronic      SCC error    
    1   -0.44293642E+02    0.00000000E+00    0.33431532E-04
    2   -0.44293642E+02    0.13503560E-04    0.22484102E-04
    3   -0.44293642E+02   -0.56833471E-09    0.99935023E-05
    4   -0.44293642E+02   -0.21391600E-09    0.33490887E-05
    5   -0.44293642E+02   -0.17053026E-10    0.83624739E-06
    6   -0.44293642E+02   -0.20676794E-11    0.30683079E-06
    7   -0.44293642E+02   -0.11368684E-12    0.13172258E-06
    8   -0.44293642E+02   -0.28421709E-13    0.59861506E-07
    9   -0.44293642E+02   -0.71054274E-14    0.28786887E-07
   10   -0.44293642E+02   -0.14210855E-13    0.13277479E-07
   11   -0.44293642E+02    0.71054274E-14    0.35138068E-08
 
Ground State Total Energy:         -42.6940984790 H        -1161.7655 eV
Ground State Extrapolated to 0K    -42.6940984790 H        -1161.7655 eV
 
Triplet State Total Energy:        -42.6445299799 H        -1160.4167 eV
Triplet State Extrapolated to 0    -42.6445299799 H        -1160.4167 eV
 
Purified State Total Energy:       -42.6378547447 H        -1160.2351 eV
Purified Extrapolated 0K:          -42.6378547447 H        -1160.2351 eV
 
S0 -> T1:                            0.0495684991 H            1.3488 eV
S0 -> S1:                            0.0562437343 H            1.5305 eV
 
Maximal force component:             0.139730E-03
Averaged force norm:                 0.719595E-04

--------------------------------------------------------------------------------

***  Geometry step: 16

 Determinant S0
 iSCC Total electronic   Diff electronic      SCC error    
    1   -0.44346733E+02    0.00000000E+00    0.62380555E-04
    2   -0.44346733E+02   -0.18432512E-03    0.30278548E-04
    3   -0.44346733E+02   -0.37800802E-08    0.22742632E-04
    4   -0.44346733E+02   -0.12559127E-08    0.88968269E-05
    5   -0.44346733E+02   -0.81072926E-11    0.18935126E-05
    6   -0.44346733E+02   -0.32891023E-10    0.41192595E-06
    7   -0.44346733E+02   -0.11368684E-11    0.16203086E-06
    8   -0.44346733E+02   -0.17053026E-12    0.24738141E-07
    9   -0.44346733E+02   -0.71054274E-14    0.12342918E-07
   10   -0.44346733E+02   -0.21316282E-13    0.34924925E-08
 Determinant T1
 iSCC Total electronic   Diff electronic      SCC error    
    1   -0.44297176E+02    0.00000000E+00    0.94225757E-04
    2   -0.44297176E+02   -0.19608855E-03    0.59196106E-04
    3   -0.44297176E+02   -0.35743923E-08    0.40724664E-04
    4   -0.44297176E+02   -0.99051789E-09    0.82898239E-05
    5   -0.44297176E+02   -0.85968566E-10    0.38843499E-05
    6   -0.44297176E+02   -0.39172221E-10    0.15319079E-05
    7   -0.44297176E+02   -0.24513724E-11    0.46208573E-06
    8   -0.44297176E+02   -0.54711791E-12    0.21657915E-06
    9   -0.44297176E+02   -0.63948846E-13    0.12858509E-06
   10   -0.44297176E+02   -0.14210855E-13    0.57724801E-07
   11   -0.44297176E+02    0.00000000E+00    0.23725215E-07
   12   -0.44297176E+02    0.00000000E+00    0.52445048E-08
 Determinant S1
 iSCC Total electronic   Diff electronic      SCC error    
    1   -0.44293838E+02    0.00000000E+00    0.12211300E-03
    2   -0.44293838E+02   -0.19577685E-03    0.77596613E-04
    3   -0.44293838E+02   -0.36008245E-08    0.23516051E-04
    4   -0.44293838E+02   -0.96964214E-09    0.65540033E-05
    5   -0.44293838E+02   -0.98964392E-10    0.37445597E-05
    6   -0.44293838E+02   -0.35889514E-10    0.10554761E-05
    7   -0.44293838E+02   -0.18829382E-11    0.32608399E-06
    8   -0.44293838E+02   -0.24158453E-12    0.16819828E-06
    9   -0.44293838E+02   -0.42632564E-13    0.68789800E-07
   10   -0.44293838E+02   -0.71054274E-14    0.44641021E-07
   11   -0.44293838E+02   -0.71054274E-14    0.15844320E-07
   12   -0.44293838E+02    0.71054274E-14    0.64175660E-08
 
Ground State Total Energy:         -42.6940875394 H        -1161.7652 eV
Ground State Extrapolated to 0K    -42.6940875394 H        -1161.7652 eV
 
Triplet State Total Energy:        -42.6445308034 H        -1160.4167 eV
Triplet State Extrapolated to 0    -42.6445308034 H        -1160.4167 eV
 
Purified State Total Energy:       -42.6378549449 H        -1160.2351 eV
Purified Extrapolated 0K:          -42.6378549449 H        -1160.2351 eV
 
S0 -> T1:                            0.0495567361 H            1.3485 eV
S0 -> S1:                            0.0562325946 H            1.5302 eV
 
Maximal force component:             0.154098E-03
Averaged force norm:                 0.706137E-04

--------------------------------------------------------------------------------

***  Geometry step: 17

 Determinant S0
 iSCC Total electronic   Diff electronic      SCC error    
    1   -0.44346727E+02    0.00000000E+00    0.19784305E-05
    2   -0.44346727E+02    0.58338460E-05    0.96005777E-06
    3   -0.44346727E+02   -0.37800874E-11    0.72043433E-06
    4   -0.44346727E+02   -0.12789769E-11    0.28166119E-06
    5   -0.44346727E+02    0.00000000E+00    0.59856584E-07
    6   -0.44346727E+02   -0.42632564E-13    0.13069853E-07
    7   -0.44346727E+02    0.00000000E+00    0.51269655E-08
 Determinant T1
 iSCC Total electronic   Diff electronic      SCC error    
    1   -0.44297170E+02    0.00000000E+00    0.29826599E-05
    2   -0.44297170E+02    0.62066885E-05    0.18745067E-05
    3   -0.44297170E+02   -0.35882408E-11    0.12900704E-05
    4   -0.44297170E+02   -0.98765440E-12    0.26234852E-06
    5   -0.44297170E+02   -0.85265128E-13    0.12310619E-06
    6   -0.44297170E+02   -0.42632564E-13    0.48421497E-07
    7   -0.44297170E+02   -0.71054274E-14    0.14553006E-07
    8   -0.44297170E+02   -0.71054274E-14    0.65412875E-08
 Determinant S1
 iSCC Total electronic   Diff electronic      SCC error    
    1   -0.44293832E+02    0.00000000E+00    0.38628792E-05
    2   -0.44293832E+02    0.61968153E-05    0.24558606E-05
    3   -0.44293832E+02   -0.36166625E-11    0.74423837E-06
    4   -0.44293832E+02   -0.95923269E-12    0.20734777E-06
    5   -0.44293832E+02   -0.12789769E-12    0.11862778E-06
    6   -0.44293832E+02   -0.21316282E-13    0.33390423E-07
    7   -0.44293832E+02    0.71054274E-14    0.10343573E-07
    8   -0.44293832E+02   -0.14210855E-13    0.48310220E-08
 
Ground State Total Energy:         -42.6940878928 H        -1161.7652 eV
Ground State Extrapolated to 0K    -42.6940878928 H        -1161.7652 eV
 
Triplet State Total Energy:        -42.6445307838 H        -1160.4167 eV
Triplet State Extrapolated to 0    -42.6445307838 H        -1160.4167 eV
 
Purified State Total Energy:       -42.6378549451 H        -1160.2351 eV
Purified Extrapolated 0K:          -42.6378549451 H        -1160.2351 eV
 
S0 -> T1:                            0.0495571089 H            1.3485 eV
S0 -> S1:                            0.0562329477 H            1.5302 eV
 
Maximal force component:             0.151795E-03
Averaged force norm:                 0.683391E-04

--------------------------------------------------------------------------------

***  Geometry step: 18

 Determinant S0
 iSCC Total electronic   Diff electronic      SCC error    
    1   -0.44347131E+02    0.00000000E+00    0.44111097E-04
    2   -0.44347131E+02   -0.40393544E-03    0.34471760E-04
    3   -0.44347131E+02   -0.58417911E-08    0.21189652E-04
    4   -0.44347131E+02   -0.19675639E-08    0.11033300E-04
    5   -0.44347131E+02   -0.33082870E-10    0.25183102E-05
    6   -0.44347131E+02   -0.21721291E-10    0.75596323E-06
    7   -0.44347131E+02   -0.27142733E-11    0.17262801E-06
    8   -0.44347131E+02   -0.34816594E-12    0.28105290E-07
    9   -0.44347131E+02   -0.14210855E-13    0.56820897E-08
 Determinant T1
 iSCC Total electronic   Diff electronic      SCC error    
    1   -0.44297556E+02    0.00000000E+00    0.93484698E-04
    2   -0.44297556E+02   -0.38556028E-03    0.65319564E-04
    3   -0.44297556E+02   -0.21499531E-08    0.58221620E-04
    4   -0.44297556E+02   -0.64721206E-09    0.95731595E-05
    5   -0.44297556E+02   -0.13077539E-09    0.35390366E-05
    6   -0.44297556E+02   -0.26886937E-10    0.10443629E-05
    7   -0.44297556E+02   -0.35456083E-11    0.62853494E-06
    8   -0.44297556E+02   -0.31974423E-12    0.20406317E-06
    9   -0.44297556E+02   -0.11368684E-12    0.10136469E-06
   10   -0.44297556E+02   -0.14210855E-13    0.75341418E-07
   11   -0.44297556E+02    0.00000000E+00    0.34604763E-07
   12   -0.44297556E+02    0.71054274E-14    0.69014792E-08
 Determinant S1
 iSCC Total electronic   Diff electronic      SCC error    
    1   -0.44294219E+02    0.00000000E+00    0.10796375E-03
    2   -0.44294219E+02   -0.38677185E-03    0.73074755E-04
    3   -0.44294219E+02   -0.22251356E-08    0.34049083E-04
    4   -0.44294219E+02   -0.69052675E-09    0.77539682E-05
    5   -0.44294219E+02   -0.91574748E-10    0.28786649E-05
    6   -0.44294219E+02   -0.17777779E-10    0.84614530E-06
    7   -0.44294219E+02   -0.21529445E-11    0.44077569E-06
    8   -0.44294219E+02   -0.24158453E-12    0.20959847E-06
    9   -0.44294219E+02   -0.42632564E-13    0.78368419E-07
   10   -0.44294219E+02   -0.71054274E-14    0.39232685E-07
   11   -0.44294219E+02   -0.71054274E-14    0.14817553E-07
   12   -0.44294219E+02    0.14210855E-13    0.61397101E-08
 
Ground State Total Energy:         -42.6941039874 H        -1161.7657 eV
Ground State Extrapolated to 0K    -42.6941039874 H        -1161.7657 eV
 
Triplet State Total Energy:        -42.6445284984 H        -1160.4167 eV
Triplet State Extrapolated to 0    -42.6445284984 H        -1160.4167 eV
 
Purified State Total Energy:       -42.6378550829 H        -1160.2351 eV
Purified Extrapolated 0K:          -42.6378550829 H        -1160.2351 eV
 
S0 -> T1:                            0.0495754890 H            1.3490 eV
S0 -> S1:                            0.0562489045 H            1.5306 eV
 
Maximal force component:             0.133628E-03
Averaged force norm:                 0.759142E-04

--------------------------------------------------------------------------------

***  Geometry step: 19

 Determinant S0
 iSCC Total electronic   Diff electronic      SCC error    
    1   -0.44347057E+02    0.00000000E+00    0.80507382E-05
    2   -0.44347057E+02    0.73722475E-04    0.62914240E-05
    3   -0.44347057E+02   -0.19461055E-09    0.38670118E-05
    4   -0.44347057E+02   -0.65561778E-10    0.20130482E-05
    5   -0.44347057E+02   -0.11013412E-11    0.45961112E-06
    6   -0.44347057E+02   -0.71764816E-12    0.13786554E-06
    7   -0.44347057E+02   -0.92370556E-13    0.31477518E-07
    8   -0.44347057E+02   -0.14210855E-13    0.51666074E-08
 Determinant T1
 iSCC Total electronic   Diff electronic      SCC error    
    1   -0.44297485E+02    0.00000000E+00    0.17060738E-04
    2   -0.44297485E+02    0.70367755E-04    0.11921029E-04
    3   -0.44297485E+02   -0.71672446E-10    0.10628796E-04
    4   -0.44297485E+02   -0.21572077E-10    0.17481970E-05
    5   -0.44297485E+02   -0.43698378E-11    0.64595179E-06
    6   -0.44297485E+02   -0.90238927E-12    0.19109801E-06
    7   -0.44297485E+02   -0.10658141E-12    0.11412810E-06
    8   -0.44297485E+02    0.00000000E+00    0.35040176E-07
    9   -0.44297485E+02   -0.71054274E-14    0.18281895E-07
   10   -0.44297485E+02   -0.14210855E-13    0.84893057E-08
 Determinant S1
 iSCC Total electronic   Diff electronic      SCC error    
    1   -0.44294148E+02    0.00000000E+00    0.19703039E-04
    2   -0.44294148E+02    0.70588827E-04    0.13337460E-04
    3   -0.44294148E+02   -0.74216189E-10    0.62144271E-05
    4   -0.44294148E+02   -0.23035795E-10    0.14156715E-05
    5   -0.44294148E+02   -0.30411229E-11    0.52553128E-06
    6   -0.44294148E+02   -0.58975047E-12    0.15454939E-06
    7   -0.44294148E+02   -0.78159701E-13    0.80148653E-07
    8   -0.44294148E+02   -0.14210855E-13    0.37642368E-07
    9   -0.44294148E+02    0.00000000E+00    0.88265244E-08
 
Ground State Total Energy:         -42.6941010822 H        -1161.7656 eV
Ground State Extrapolated to 0K    -42.6941010822 H        -1161.7656 eV
 
Triplet State Total Energy:        -42.6445289478 H        -1160.4167 eV
Triplet State Extrapolated to 0    -42.6445289478 H        -1160.4167 eV
 
Purified State Total Energy:       -42.6378550902 H        -1160.2351 eV
Purified Extrapolated 0K:          -42.6378550902 H        -1160.2351 eV
 
S0 -> T1:                            0.0495721344 H            1.3489 eV
S0 -> S1:                            0.0562459921 H            1.5305 eV
 
Maximal force component:             0.947612E-04
Averaged force norm:                 0.607873E-04

--------------------------------------------------------------------------------

***  Geometry step: 20

 Determinant S0
 iSCC Total electronic   Diff electronic      SCC error    
    1   -0.44347174E+02    0.00000000E+00    0.64021701E-04
    2   -0.44347174E+02   -0.11660034E-03    0.30137693E-04
    3   -0.44347174E+02   -0.35131364E-08    0.13062329E-04
    4   -0.44347174E+02   -0.11003252E-08    0.52615959E-05
    5   -0.44347174E+02   -0.17998047E-10    0.16228688E-05
    6   -0.44347174E+02   -0.53859139E-11    0.38722191E-06
    7   -0.44347174E+02   -0.31974423E-11    0.71659216E-07
    8   -0.44347174E+02   -0.19184654E-12    0.27373002E-07
    9   -0.44347174E+02   -0.21316282E-13    0.68694994E-08
 Determinant T1
 iSCC Total electronic   Diff electronic      SCC error    
    1   -0.44297613E+02    0.00000000E+00    0.77842995E-04
    2   -0.44297613E+02   -0.12788103E-03    0.51148197E-04
    3   -0.44297613E+02   -0.43853134E-08    0.34603170E-04
    4   -0.44297613E+02   -0.98633990E-09    0.11295649E-04
    5   -0.44297613E+02   -0.20357049E-10    0.14731798E-05
    6   -0.44297613E+02   -0.38909320E-10    0.82076672E-06
    7   -0.44297613E+02   -0.17905677E-11    0.40706040E-06
    8   -0.44297613E+02   -0.13500312E-12    0.10690061E-06
    9   -0.44297613E+02   -0.28421709E-13    0.58590822E-07
   10   -0.44297613E+02   -0.71054274E-14    0.35114327E-07
   11   -0.44297613E+02    0.00000000E+00    0.10535159E-07
   12   -0.44297613E+02    0.71054274E-14    0.45112156E-08
 Determinant S1
 iSCC Total electronic   Diff electronic      SCC error    
    1   -0.44294276E+02    0.00000000E+00    0.62880082E-04
    2   -0.44294276E+02   -0.12772661E-03    0.33556225E-04
    3   -0.44294276E+02   -0.44678288E-08    0.17606625E-04
    4   -0.44294276E+02   -0.98913233E-09    0.52071092E-05
    5   -0.44294276E+02   -0.16292745E-10    0.17170346E-05
    6   -0.44294276E+02   -0.23277380E-10    0.64657546E-06
    7   -0.44294276E+02   -0.11937118E-11    0.35546608E-06
    8   -0.44294276E+02   -0.85265128E-13    0.87109088E-07
    9   -0.44294276E+02   -0.28421709E-13    0.43831649E-07
   10   -0.44294276E+02   -0.71054274E-14    0.26744151E-07
   11   -0.44294276E+02   -0.14210855E-13    0.93935628E-08
 
Ground State Total Energy:         -42.6940902264 H        -1161.7653 eV
Ground State Extrapolated to 0K    -42.6940902264 H        -1161.7653 eV
 
Triplet State Total Energy:        -42.6445293734 H        -1160.4167 eV
Triplet State Extrapolated to 0    -42.6445293734 H        -1160.4167 eV
 
Purified State Total Energy:       -42.6378552071 H        -1160.2351 eV
Purified Extrapolated 0K:          -42.6378552071 H        -1160.2351 eV
 
S0 -> T1:                            0.0495608529 H            1.3486 eV
S0 -> S1:                            0.0562350193 H            1.5302 eV
 
Maximal force component:             0.699531E-04
Averaged force norm:                 0.496121E-04

--------------------------------------------------------------------------------

***  Geometry step: 21

 Determinant S0
 iSCC Total electronic   Diff electronic      SCC error    
    1   -0.44347164E+02    0.00000000E+00    0.53403603E-05
    2   -0.44347164E+02    0.97173657E-05    0.25131267E-05
    3   -0.44347164E+02   -0.24407143E-10    0.10891341E-05
    4   -0.44347164E+02   -0.76596507E-11    0.43969018E-06
    5   -0.44347164E+02   -0.11368684E-12    0.13540616E-06
    6   -0.44347164E+02   -0.49737992E-13    0.32301416E-07
    7   -0.44347164E+02   -0.14210855E-13    0.59834184E-08
 Determinant T1
 iSCC Total electronic   Diff electronic      SCC error    
    1   -0.44297602E+02    0.00000000E+00    0.64875432E-05
    2   -0.44297602E+02    0.10658094E-04    0.42636461E-05
    3   -0.44297602E+02   -0.30482283E-10    0.28843296E-05
    4   -0.44297602E+02   -0.68496320E-11    0.94183780E-06
    5   -0.44297602E+02   -0.13500312E-12    0.12293312E-06
    6   -0.44297602E+02   -0.28421709E-12    0.68319181E-07
    7   -0.44297602E+02   -0.71054274E-14    0.33947841E-07
    8   -0.44297602E+02    0.00000000E+00    0.56530842E-08
 Determinant S1
 iSCC Total electronic   Diff electronic      SCC error    
    1   -0.44294265E+02    0.00000000E+00    0.52434463E-05
    2   -0.44294265E+02    0.10645183E-04    0.27978714E-05
    3   -0.44294265E+02   -0.31036507E-10    0.14679417E-05
    4   -0.44294265E+02   -0.68709483E-11    0.43369935E-06
    5   -0.44294265E+02   -0.12789769E-12    0.14303091E-06
    6   -0.44294265E+02   -0.15631940E-12    0.53774742E-07
    7   -0.44294265E+02    0.00000000E+00    0.29419768E-07
    8   -0.44294265E+02    0.00000000E+00    0.57767244E-08
 
Ground State Total Energy:         -42.6940911422 H        -1161.7653 eV
Ground State Extrapolated to 0K    -42.6940911422 H        -1161.7653 eV
 
Triplet State Total Energy:        -42.6445293486 H        -1160.4167 eV
Triplet State Extrapolated to 0    -42.6445293486 H        -1160.4167 eV
 
Purified State Total Energy:       -42.6378552080 H        -1160.2351 eV
Purified Extrapolated 0K:          -42.6378552080 H        -1160.2351 eV
 
S0 -> T1:                            0.0495617937 H            1.3486 eV
S0 -> S1:                            0.0562359342 H            1.5303 eV
 
Maximal force component:             0.662564E-04
Averaged force norm:                 0.451923E-04

--------------------------------------------------------------------------------

***  Geometry step: 22

 Determinant S0
 iSCC Total electronic   Diff electronic      SCC error    
    1   -0.44347133E+02    0.00000000E+00    0.39311067E-04
    2   -0.44347133E+02    0.31489147E-04    0.17984441E-04
    3   -0.44347133E+02   -0.22345006E-08    0.11892727E-04
    4   -0.44347133E+02   -0.64958527E-09    0.80492251E-05
    5   -0.44347133E+02   -0.23057112E-10    0.18153914E-05
    6   -0.44347133E+02   -0.24115820E-10    0.55910730E-06
    7   -0.44347133E+02   -0.14921397E-11    0.14840984E-06
    8   -0.44347133E+02   -0.10658141E-12    0.18777234E-07
    9   -0.44347133E+02   -0.28421709E-13    0.85546215E-08
 Determinant T1
 iSCC Total electronic   Diff electronic      SCC error    
    1   -0.44297573E+02    0.00000000E+00    0.69410337E-04
    2   -0.44297573E+02    0.28976633E-04    0.44182880E-04
    3   -0.44297573E+02   -0.26775595E-08    0.36595351E-04
    4   -0.44297573E+02   -0.80100904E-09    0.75605378E-05
    5   -0.44297573E+02   -0.36123993E-10    0.29646207E-05
    6   -0.44297573E+02   -0.21117330E-10    0.11658946E-05
    7   -0.44297573E+02   -0.16484591E-11    0.51867255E-06
    8   -0.44297573E+02   -0.22026825E-12    0.18321955E-06
    9   -0.44297573E+02   -0.35527137E-13    0.90833888E-07
   10   -0.44297573E+02   -0.28421709E-13    0.59579786E-07
   11   -0.44297573E+02    0.71054274E-14    0.23559305E-07
   12   -0.44297573E+02   -0.71054274E-14    0.58463483E-08
 Determinant S1
 iSCC Total electronic   Diff electronic      SCC error    
    1   -0.44294236E+02    0.00000000E+00    0.77772781E-04
    2   -0.44294236E+02    0.29216379E-04    0.44637318E-04
    3   -0.44294236E+02   -0.26847147E-08    0.22767368E-04
    4   -0.44294236E+02   -0.82219032E-09    0.66332538E-05
    5   -0.44294236E+02   -0.31008085E-10    0.31256560E-05
    6   -0.44294236E+02   -0.18282265E-10    0.79311290E-06
    7   -0.44294236E+02   -0.15418777E-11    0.41378222E-06
    8   -0.44294236E+02   -0.14921397E-12    0.15307822E-06
    9   -0.44294236E+02   -0.56843419E-13    0.58366273E-07
   10   -0.44294236E+02   -0.14210855E-13    0.38738735E-07
   11   -0.44294236E+02    0.14210855E-13    0.12887311E-07
   12   -0.44294236E+02    0.71054274E-14    0.49722357E-08
 
Ground State Total Energy:         -42.6940891907 H        -1161.7653 eV
Ground State Extrapolated to 0K    -42.6940891907 H        -1161.7653 eV
 
Triplet State Total Energy:        -42.6445299102 H        -1160.4167 eV
Triplet State Extrapolated to 0    -42.6445299102 H        -1160.4167 eV
 
Purified State Total Energy:       -42.6378552902 H        -1160.2351 eV
Purified Extrapolated 0K:          -42.6378552902 H        -1160.2351 eV
 
S0 -> T1:                            0.0495592805 H            1.3486 eV
S0 -> S1:                            0.0562339005 H            1.5302 eV
 
Maximal force component:             0.813689E-04
Averaged force norm:                 0.549989E-04

--------------------------------------------------------------------------------

***  Geometry step: 23

 Determinant S0
 iSCC Total electronic   Diff electronic      SCC error    
    1   -0.44347138E+02    0.00000000E+00    0.59760681E-05
    2   -0.44347138E+02   -0.47908864E-05    0.27329652E-05
    3   -0.44347138E+02   -0.51663562E-10    0.18081465E-05
    4   -0.44347138E+02   -0.14992452E-10    0.12237361E-05
    5   -0.44347138E+02   -0.53290705E-12    0.27574038E-06
    6   -0.44347138E+02   -0.55422333E-12    0.84992750E-07
    7   -0.44347138E+02   -0.14210855E-13    0.22487566E-07
    8   -0.44347138E+02    0.00000000E+00    0.28960643E-08
 Determinant T1
 iSCC Total electronic   Diff electronic      SCC error    
    1   -0.44297578E+02    0.00000000E+00    0.10544997E-04
    2   -0.44297578E+02   -0.44085606E-05    0.67129734E-05
    3   -0.44297578E+02   -0.61852745E-10    0.55604820E-05
    4   -0.44297578E+02   -0.18502533E-10    0.11493709E-05
    5   -0.44297578E+02   -0.83133500E-12    0.45051870E-06
    6   -0.44297578E+02   -0.48316906E-12    0.17716600E-06
    7   -0.44297578E+02   -0.35527137E-13    0.79017193E-07
    8   -0.44297578E+02   -0.71054274E-14    0.27479553E-07
    9   -0.44297578E+02   -0.71054274E-14    0.13703695E-07
   10   -0.44297578E+02    0.00000000E+00    0.45021897E-08
 Determinant S1
 iSCC Total electronic   Diff electronic      SCC error    
    1   -0.44294241E+02    0.00000000E+00    0.11819301E-04
    2   -0.44294241E+02   -0.44449890E-05    0.67828210E-05
    3   -0.44294241E+02   -0.62009065E-10    0.34593892E-05
    4   -0.44294241E+02   -0.18985702E-10    0.10079798E-05
    5   -0.44294241E+02   -0.72475359E-12    0.47503288E-06
    6   -0.44294241E+02   -0.41922021E-12    0.12051099E-06
    7   -0.44294241E+02   -0.42632564E-13    0.64026126E-07
    8   -0.44294241E+02    0.00000000E+00    0.22672977E-07
    9   -0.44294241E+02    0.00000000E+00    0.81450011E-08
 
Ground State Total Energy:         -42.6940895029 H        -1161.7653 eV
Ground State Extrapolated to 0K    -42.6940895029 H        -1161.7653 eV
 
Triplet State Total Energy:        -42.6445298400 H        -1160.4167 eV
Triplet State Extrapolated to 0    -42.6445298400 H        -1160.4167 eV
 
Purified State Total Energy:       -42.6378552929 H        -1160.2351 eV
Purified Extrapolated 0K:          -42.6378552929 H        -1160.2351 eV
 
S0 -> T1:                            0.0495596629 H            1.3486 eV
S0 -> S1:                            0.0562342100 H            1.5302 eV
 
Maximal force component:             0.633902E-04
Averaged force norm:                 0.461336E-04

--------------------------------------------------------------------------------

***  Geometry step: 24

 Determinant S0
 iSCC Total electronic   Diff electronic      SCC error    
    1   -0.44347153E+02    0.00000000E+00    0.26665728E-04
    2   -0.44347153E+02   -0.15357496E-04    0.14376907E-04
    3   -0.44347153E+02   -0.11559678E-08    0.10682061E-04
    4   -0.44347153E+02   -0.39126746E-09    0.45098988E-05
    5   -0.44347153E+02   -0.14289014E-10    0.10621143E-05
    6   -0.44347153E+02   -0.46398441E-11    0.31140228E-06
    7   -0.44347153E+02   -0.14921397E-11    0.10395546E-06
    8   -0.44347153E+02   -0.85265128E-13    0.20156231E-07
    9   -0.44347153E+02   -0.71054274E-14    0.38370063E-08
 Determinant T1
 iSCC Total electronic   Diff electronic      SCC error    
    1   -0.44297588E+02    0.00000000E+00    0.46519671E-04
    2   -0.44297588E+02   -0.99712308E-05    0.30663627E-04
    3   -0.44297588E+02   -0.72401463E-09    0.25517604E-04
    4   -0.44297588E+02   -0.28891378E-09    0.58424964E-05
    5   -0.44297588E+02   -0.34020786E-10    0.20996062E-05
    6   -0.44297588E+02   -0.11326051E-10    0.62533747E-06
    7   -0.44297588E+02   -0.10089707E-11    0.28803002E-06
    8   -0.44297588E+02   -0.10658141E-12    0.13136499E-06
    9   -0.44297588E+02   -0.71054274E-14    0.58584669E-07
   10   -0.44297588E+02    0.00000000E+00    0.42856339E-07
   11   -0.44297588E+02   -0.21316282E-13    0.13467411E-07
   12   -0.44297588E+02    0.71054274E-14    0.45121571E-08
 Determinant S1
 iSCC Total electronic   Diff electronic      SCC error    
[...]
    9   -0.44294130E+02    0.00000000E+00    0.65928825E-08
 
Ground State Total Energy:         -42.6940939936 H        -1161.7654 eV
Ground State Extrapolated to 0K    -42.6940939936 H        -1161.7654 eV
 
Triplet State Total Energy:        -42.6445284187 H        -1160.4167 eV
Triplet State Extrapolated to 0    -42.6445284187 H        -1160.4167 eV
 
Purified State Total Energy:       -42.6378554319 H        -1160.2351 eV
Purified Extrapolated 0K:          -42.6378554319 H        -1160.2351 eV
 
S0 -> T1:                            0.0495655749 H            1.3487 eV
S0 -> S1:                            0.0562385617 H            1.5303 eV
 
Maximal force component:             0.236475E-04
Averaged force norm:                 0.135338E-04

--------------------------------------------------------------------------------

***  Geometry step: 32

 Determinant S0
 iSCC Total electronic   Diff electronic      SCC error    
    1   -0.44347053E+02    0.00000000E+00    0.45512148E-05
    2   -0.44347053E+02   -0.20853136E-04    0.33480402E-05
    3   -0.44347053E+02   -0.23007374E-10    0.20826421E-05
    4   -0.44347053E+02   -0.55422333E-11    0.62661082E-06
    5   -0.44347053E+02   -0.10871304E-11    0.23419008E-06
    6   -0.44347053E+02   -0.33395509E-12    0.55940808E-07
    7   -0.44347053E+02   -0.49737992E-13    0.15872250E-07
    8   -0.44347053E+02    0.14210855E-13    0.27705471E-08
 Determinant T1
 iSCC Total electronic   Diff electronic      SCC error    
    1   -0.44297489E+02    0.00000000E+00    0.72787827E-05
    2   -0.44297489E+02   -0.23241515E-04    0.52478975E-05
    3   -0.44297489E+02   -0.32194691E-10    0.50422143E-05
    4   -0.44297489E+02   -0.88675733E-11    0.10400787E-05
    5   -0.44297489E+02   -0.17408297E-11    0.37642945E-06
    6   -0.44297489E+02   -0.61817218E-12    0.11347001E-06
    7   -0.44297489E+02   -0.35527137E-13    0.49668239E-07
    8   -0.44297489E+02   -0.14210855E-13    0.18261298E-07
    9   -0.44297489E+02    0.14210855E-13    0.75500728E-08
 Determinant S1
 iSCC Total electronic   Diff electronic      SCC error    
    1   -0.44294153E+02    0.00000000E+00    0.89462419E-05
    2   -0.44294153E+02   -0.23059992E-04    0.44983475E-05
    3   -0.44294153E+02   -0.34802383E-10    0.36721038E-05
    4   -0.44294153E+02   -0.94928509E-11    0.92589526E-06
    5   -0.44294153E+02   -0.13073986E-11    0.23741636E-06
    6   -0.44294153E+02   -0.52580162E-12    0.10757822E-06
    7   -0.44294153E+02   -0.28421709E-13    0.42273546E-07
    8   -0.44294153E+02    0.14210855E-13    0.17506673E-07
    9   -0.44294153E+02    0.00000000E+00    0.84280967E-08
 
Ground State Total Energy:         -42.6940919767 H        -1161.7654 eV
Ground State Extrapolated to 0K    -42.6940919767 H        -1161.7654 eV
 
Triplet State Total Energy:        -42.6445287902 H        -1160.4167 eV
Triplet State Extrapolated to 0    -42.6445287902 H        -1160.4167 eV
 
Purified State Total Energy:       -42.6378554404 H        -1160.2351 eV
Purified Extrapolated 0K:          -42.6378554404 H        -1160.2351 eV
 
S0 -> T1:                            0.0495631865 H            1.3487 eV
S0 -> S1:                            0.0562365364 H            1.5303 eV
 
Maximal force component:             0.242154E-04
Averaged force norm:                 0.134459E-04

--------------------------------------------------------------------------------

***  Geometry step: 33

 Determinant S0
 iSCC Total electronic   Diff electronic      SCC error    
    1   -0.44347086E+02    0.00000000E+00    0.73637442E-05
    2   -0.44347086E+02   -0.33729857E-04    0.54170615E-05
    3   -0.44347086E+02   -0.60225602E-10    0.33702498E-05
    4   -0.44347086E+02   -0.14487966E-10    0.10139803E-05
    5   -0.44347086E+02   -0.28492764E-11    0.37893806E-06
    6   -0.44347086E+02   -0.87396756E-12    0.90522249E-07
    7   -0.44347086E+02   -0.92370556E-13    0.25676483E-07
    8   -0.44347086E+02    0.00000000E+00    0.44803117E-08
 Determinant T1
 iSCC Total electronic   Diff electronic      SCC error    
    1   -0.44297527E+02    0.00000000E+00    0.11778357E-04
    2   -0.44297527E+02   -0.37594788E-04    0.84917130E-05
    3   -0.44297527E+02   -0.84277474E-10    0.81599499E-05
    4   -0.44297527E+02   -0.23234747E-10    0.16831457E-05
    5   -0.44297527E+02   -0.45119464E-11    0.60910634E-06
    6   -0.44297527E+02   -0.16271429E-11    0.18357131E-06
    7   -0.44297527E+02   -0.63948846E-13    0.80306349E-07
    8   -0.44297527E+02   -0.28421709E-13    0.29521338E-07
    9   -0.44297527E+02   -0.71054274E-14    0.12344575E-07
   10   -0.44297527E+02    0.71054274E-14    0.69201500E-08
 Determinant S1
 iSCC Total electronic   Diff electronic      SCC error    
    1   -0.44294190E+02    0.00000000E+00    0.14470770E-04
    2   -0.44294190E+02   -0.37301063E-04    0.72767274E-05
    3   -0.44294190E+02   -0.91056052E-10    0.59404141E-05
    4   -0.44294190E+02   -0.24861890E-10    0.14983446E-05
    5   -0.44294190E+02   -0.34390268E-11    0.38472859E-06
    6   -0.44294190E+02   -0.13571366E-11    0.17412305E-06
    7   -0.44294190E+02   -0.49737992E-13    0.68407410E-07
    8   -0.44294190E+02   -0.14210855E-13    0.28319635E-07
    9   -0.44294190E+02    0.71054274E-14    0.13772498E-07
   10   -0.44294190E+02   -0.71054274E-14    0.57494147E-08
 
Ground State Total Energy:         -42.6940886873 H        -1161.7653 eV
Ground State Extrapolated to 0K    -42.6940886873 H        -1161.7653 eV
 
Triplet State Total Energy:        -42.6445293658 H        -1160.4167 eV
Triplet State Extrapolated to 0    -42.6445293658 H        -1160.4167 eV
 
Purified State Total Energy:       -42.6378554285 H        -1160.2351 eV
Purified Extrapolated 0K:          -42.6378554285 H        -1160.2351 eV
 
S0 -> T1:                            0.0495593215 H            1.3486 eV
S0 -> S1:                            0.0562332588 H            1.5302 eV
 
Maximal force component:             0.654789E-04
Averaged force norm:                 0.381956E-04

--------------------------------------------------------------------------------

***  Geometry step: 34

 Determinant S0
 iSCC Total electronic   Diff electronic      SCC error    
    1   -0.44347057E+02    0.00000000E+00    0.64484930E-05
    2   -0.44347057E+02    0.29534128E-04    0.47437156E-05
    3   -0.44347057E+02   -0.46171067E-10    0.29507471E-05
    4   -0.44347057E+02   -0.11119994E-10    0.88783163E-06
    5   -0.44347057E+02   -0.21671553E-11    0.33174535E-06
    6   -0.44347057E+02   -0.68212103E-12    0.79269138E-07
    7   -0.44347057E+02   -0.71054274E-13    0.22501053E-07
    8   -0.44347057E+02   -0.71054274E-14    0.39301939E-08
 Determinant T1
 iSCC Total electronic   Diff electronic      SCC error    
    1   -0.44297494E+02    0.00000000E+00    0.10311034E-04
    2   -0.44297494E+02    0.32918452E-04    0.74393858E-05
    3   -0.44297494E+02   -0.64609651E-10    0.71439334E-05
    4   -0.44297494E+02   -0.17813306E-10    0.14741424E-05
    5   -0.44297494E+02   -0.34532377E-11    0.53329391E-06
    6   -0.44297494E+02   -0.12576606E-11    0.16068818E-06
    7   -0.44297494E+02   -0.63948846E-13    0.70201897E-07
    8   -0.44297494E+02   -0.14210855E-13    0.26015386E-07
    9   -0.44297494E+02    0.71054274E-14    0.10804776E-07
   10   -0.44297494E+02    0.00000000E+00    0.54839944E-08
 Determinant S1
 iSCC Total electronic   Diff electronic      SCC error    
    1   -0.44294157E+02    0.00000000E+00    0.12678609E-04
    2   -0.44294157E+02    0.32661271E-04    0.63714795E-05
    3   -0.44294157E+02   -0.69867667E-10    0.52029550E-05
    4   -0.44294157E+02   -0.19085178E-10    0.13116375E-05
    5   -0.44294157E+02   -0.26076918E-11    0.33683921E-06
    6   -0.44294157E+02   -0.10658141E-11    0.15230908E-06
    7   -0.44294157E+02   -0.71054274E-14    0.59896846E-07
    8   -0.44294157E+02   -0.35527137E-13    0.24730660E-07
    9   -0.44294157E+02    0.71054274E-14    0.12082794E-07
   10   -0.44294157E+02    0.00000000E+00    0.47987723E-08
 
Ground State Total Energy:         -42.6940915694 H        -1161.7653 eV
Ground State Extrapolated to 0K    -42.6940915694 H        -1161.7653 eV
 
Triplet State Total Energy:        -42.6445288635 H        -1160.4167 eV
Triplet State Extrapolated to 0    -42.6445288635 H        -1160.4167 eV
 
Purified State Total Energy:       -42.6378554406 H        -1160.2351 eV
Purified Extrapolated 0K:          -42.6378554406 H        -1160.2351 eV
 
S0 -> T1:                            0.0495627058 H            1.3487 eV
S0 -> S1:                            0.0562361287 H            1.5303 eV
 
Maximal force component:             0.283753E-04
Averaged force norm:                 0.159209E-04

--------------------------------------------------------------------------------

***  Geometry step: 35

 Determinant S0
 iSCC Total electronic   Diff electronic      SCC error    
    1   -0.44347108E+02    0.00000000E+00    0.11075042E-04
    2   -0.44347108E+02   -0.51596652E-04    0.75442433E-05
    3   -0.44347108E+02   -0.69192652E-10    0.26576292E-05
    4   -0.44347108E+02   -0.19348079E-10    0.14288915E-05
    5   -0.44347108E+02   -0.11439738E-11    0.40145289E-06
    6   -0.44347108E+02   -0.68212103E-12    0.54557942E-07
    7   -0.44347108E+02   -0.85265128E-13    0.20135318E-07
    8   -0.44347108E+02   -0.14210855E-13    0.41803356E-08
 Determinant T1
 iSCC Total electronic   Diff electronic      SCC error    
    1   -0.44297543E+02    0.00000000E+00    0.12392362E-04
    2   -0.44297543E+02   -0.49126547E-04    0.84609098E-05
    3   -0.44297543E+02   -0.54448890E-10    0.68448919E-05
    4   -0.44297543E+02   -0.14232171E-10    0.23442104E-05
    5   -0.44297543E+02   -0.45332627E-11    0.53884301E-06
    6   -0.44297543E+02   -0.49737992E-12    0.18408945E-06
    7   -0.44297543E+02   -0.78159701E-13    0.85250698E-07
    8   -0.44297543E+02   -0.71054274E-14    0.21210128E-07
    9   -0.44297543E+02    0.00000000E+00    0.11875438E-07
   10   -0.44297543E+02    0.00000000E+00    0.61682655E-08
 Determinant S1
 iSCC Total electronic   Diff electronic      SCC error    
    1   -0.44294207E+02    0.00000000E+00    0.11780901E-04
    2   -0.44294207E+02   -0.49311381E-04    0.86986699E-05
    3   -0.44294207E+02   -0.55599969E-10    0.49559789E-05
    4   -0.44294207E+02   -0.16790125E-10    0.15006312E-05
    5   -0.44294207E+02   -0.26716407E-11    0.53349035E-06
    6   -0.44294207E+02   -0.45474735E-12    0.16940803E-06
    7   -0.44294207E+02   -0.56843419E-13    0.79426322E-07
    8   -0.44294207E+02   -0.71054274E-14    0.21936305E-07
    9   -0.44294207E+02    0.71054274E-14    0.91631380E-08
 
Ground State Total Energy:         -42.6940936767 H        -1161.7654 eV
Ground State Extrapolated to 0K    -42.6940936767 H        -1161.7654 eV
 
Triplet State Total Energy:        -42.6445285007 H        -1160.4167 eV
Triplet State Extrapolated to 0    -42.6445285007 H        -1160.4167 eV
 
Purified State Total Energy:       -42.6378554475 H        -1160.2351 eV
Purified Extrapolated 0K:          -42.6378554475 H        -1160.2351 eV
 
S0 -> T1:                            0.0495651759 H            1.3487 eV
S0 -> S1:                            0.0562382292 H            1.5303 eV
 
Maximal force component:             0.178256E-04
Averaged force norm:                 0.972209E-05

--------------------------------------------------------------------------------

***  Geometry step: 36

 Determinant S0
 iSCC Total electronic   Diff electronic      SCC error    
    1   -0.44347104E+02    0.00000000E+00    0.99662175E-06
    2   -0.44347104E+02    0.46330771E-05    0.67850722E-06
    3   -0.44347104E+02   -0.55422333E-12    0.23871611E-06
    4   -0.44347104E+02   -0.17053026E-12    0.12852612E-06
    5   -0.44347104E+02    0.00000000E+00    0.35943555E-07
    6   -0.44347104E+02    0.71054274E-14    0.48864781E-08
 Determinant T1
 iSCC Total electronic   Diff electronic      SCC error    
    1   -0.44297539E+02    0.00000000E+00    0.11117317E-05
    2   -0.44297539E+02    0.44112756E-05    0.75886570E-06
    3   -0.44297539E+02   -0.41922021E-12    0.61423198E-06
    4   -0.44297539E+02   -0.12789769E-12    0.21041016E-06
    5   -0.44297539E+02   -0.42632564E-13    0.48360173E-07
    6   -0.44297539E+02    0.00000000E+00    0.16528194E-07
    7   -0.44297539E+02    0.71054274E-14    0.75756834E-08
 Determinant S1
 iSCC Total electronic   Diff electronic      SCC error    
    1   -0.44294202E+02    0.00000000E+00    0.10510390E-05
    2   -0.44294202E+02    0.44278735E-05    0.77655782E-06
    3   -0.44294202E+02   -0.46185278E-12    0.44656436E-06
    4   -0.44294202E+02   -0.12079227E-12    0.13523035E-06
    5   -0.44294202E+02   -0.14210855E-13    0.47713295E-07
    6   -0.44294202E+02   -0.71054274E-14    0.15002747E-07
    7   -0.44294202E+02    0.00000000E+00    0.70507518E-08
 
Ground State Total Energy:         -42.6940934881 H        -1161.7654 eV
Ground State Extrapolated to 0K    -42.6940934881 H        -1161.7654 eV
 
Triplet State Total Energy:        -42.6445285340 H        -1160.4167 eV
Triplet State Extrapolated to 0    -42.6445285340 H        -1160.4167 eV
 
Purified State Total Energy:       -42.6378554476 H        -1160.2351 eV
Purified Extrapolated 0K:          -42.6378554476 H        -1160.2351 eV
 
S0 -> T1:                            0.0495649541 H            1.3487 eV
S0 -> S1:                            0.0562380406 H            1.5303 eV
 
Maximal force component:             0.158787E-04
Averaged force norm:                 0.873297E-05

--------------------------------------------------------------------------------

***  Geometry step: 37

 Determinant S0
 iSCC Total electronic   Diff electronic      SCC error    
    1   -0.44347145E+02    0.00000000E+00    0.17048413E-04
    2   -0.44347145E+02   -0.41615274E-04    0.98439873E-05
    3   -0.44347145E+02   -0.29488945E-09    0.45754127E-05
    4   -0.44347145E+02   -0.11274182E-09    0.22533888E-05
    5   -0.44347145E+02   -0.58761884E-11    0.82710238E-06
    6   -0.44347145E+02   -0.35527137E-13    0.13736503E-06
    7   -0.44347145E+02   -0.39079850E-12    0.48807101E-07
    8   -0.44347145E+02   -0.21316282E-13    0.55938404E-08
 Determinant T1
 iSCC Total electronic   Diff electronic      SCC error    
    1   -0.44297578E+02    0.00000000E+00    0.14028448E-04
    2   -0.44297578E+02   -0.39138373E-04    0.88698431E-05
    3   -0.44297578E+02   -0.21800162E-09    0.53151988E-05
    4   -0.44297578E+02   -0.92740038E-10    0.28574359E-05
    5   -0.44297578E+02   -0.23803182E-11    0.89000017E-06
    6   -0.44297578E+02   -0.15702994E-11    0.30238811E-06
    7   -0.44297578E+02   -0.24158453E-12    0.70784904E-07
    8   -0.44297578E+02   -0.71054274E-14    0.37776082E-07
    9   -0.44297578E+02    0.00000000E+00    0.13752848E-07
   10   -0.44297578E+02    0.00000000E+00    0.58347858E-08
 Determinant S1
 iSCC Total electronic   Diff electronic      SCC error    
    1   -0.44294242E+02    0.00000000E+00    0.16015174E-04
    2   -0.44294242E+02   -0.39282607E-04    0.10607912E-04
    3   -0.44294242E+02   -0.21955060E-09    0.44919952E-05
    4   -0.44294242E+02   -0.93130836E-10    0.23471300E-05
    5   -0.44294242E+02   -0.23945290E-11    0.83116608E-06
    6   -0.44294242E+02   -0.10942358E-11    0.27107697E-06
    7   -0.44294242E+02   -0.19895197E-12    0.84316611E-07
    8   -0.44294242E+02   -0.71054274E-14    0.23566487E-07
    9   -0.44294242E+02    0.00000000E+00    0.11947516E-07
   10   -0.44294242E+02   -0.21316282E-13    0.45978590E-08
 
Ground State Total Energy:         -42.6940956750 H        -1161.7655 eV
Ground State Extrapolated to 0K    -42.6940956750 H        -1161.7655 eV
 
Triplet State Total Energy:        -42.6445282439 H        -1160.4167 eV
Triplet State Extrapolated to 0    -42.6445282439 H        -1160.4167 eV
 
Purified State Total Energy:       -42.6378554459 H        -1160.2351 eV
Purified Extrapolated 0K:          -42.6378554459 H        -1160.2351 eV
 
S0 -> T1:                            0.0495674311 H            1.3488 eV
S0 -> S1:                            0.0562402291 H            1.5304 eV
 
Maximal force component:             0.318256E-04
Averaged force norm:                 0.192152E-04

--------------------------------------------------------------------------------

***  Geometry step: 38

 Determinant S0
 iSCC Total electronic   Diff electronic      SCC error    
    1   -0.44347122E+02    0.00000000E+00    0.96991461E-05
    2   -0.44347122E+02    0.23664068E-04    0.56003075E-05
    3   -0.44347122E+02   -0.95376151E-10    0.26023357E-05
    4   -0.44347122E+02   -0.36457948E-10    0.12814366E-05
    5   -0.44347122E+02   -0.18900437E-11    0.47032710E-06
    6   -0.44347122E+02   -0.28421709E-13    0.78143127E-07
    7   -0.44347122E+02   -0.12789769E-12    0.27774528E-07
    8   -0.44347122E+02    0.00000000E+00    0.31787893E-08
 Determinant T1
 iSCC Total electronic   Diff electronic      SCC error    
    1   -0.44297556E+02    0.00000000E+00    0.79770737E-05
    2   -0.44297556E+02    0.22255537E-04    0.50440198E-05
    3   -0.44297556E+02   -0.70500050E-10    0.30222131E-05
    4   -0.44297556E+02   -0.29992009E-10    0.16252010E-05
    5   -0.44297556E+02   -0.78870244E-12    0.50568946E-06
    6   -0.44297556E+02   -0.50448534E-12    0.17194231E-06
    7   -0.44297556E+02   -0.56843419E-13    0.40204689E-07
    8   -0.44297556E+02   -0.14210855E-13    0.21247065E-07
    9   -0.44297556E+02   -0.71054274E-14    0.75814548E-08
 Determinant S1
 iSCC Total electronic   Diff electronic      SCC error    
    1   -0.44294219E+02    0.00000000E+00    0.91079161E-05
    2   -0.44294219E+02    0.22337557E-04    0.60322674E-05
    3   -0.44294219E+02   -0.70997430E-10    0.25559705E-05
    4   -0.44294219E+02   -0.30119907E-10    0.13352236E-05
    5   -0.44294219E+02   -0.77449158E-12    0.47245053E-06
    6   -0.44294219E+02   -0.36237680E-12    0.15418577E-06
    7   -0.44294219E+02   -0.71054274E-13    0.47912038E-07
    8   -0.44294219E+02    0.28421709E-13    0.13248903E-07
    9   -0.44294219E+02   -0.14210855E-13    0.67002368E-08
 
Ground State Total Energy:         -42.6940944345 H        -1161.7654 eV
Ground State Extrapolated to 0K    -42.6940944345 H        -1161.7654 eV
 
Triplet State Total Energy:        -42.6445284118 H        -1160.4167 eV
Triplet State Extrapolated to 0    -42.6445284118 H        -1160.4167 eV
 
Purified State Total Energy:       -42.6378554498 H        -1160.2351 eV
Purified Extrapolated 0K:          -42.6378554498 H        -1160.2351 eV
 
S0 -> T1:                            0.0495660226 H            1.3488 eV
S0 -> S1:                            0.0562389847 H            1.5303 eV
 
Maximal force component:             0.977707E-05
Averaged force norm:                 0.663564E-05

--------------------------------------------------------------------------------

***  Geometry step: 39

 Determinant S0
 iSCC Total electronic   Diff electronic      SCC error    
    1   -0.44347124E+02    0.00000000E+00    0.69650086E-05
    2   -0.44347124E+02   -0.23349088E-05    0.42706117E-05
    3   -0.44347124E+02   -0.28130387E-10    0.96072935E-06
    4   -0.44347124E+02   -0.12256862E-10    0.55254352E-06
    5   -0.44347124E+02   -0.42632564E-12    0.24131552E-06
    6   -0.44347124E+02   -0.71054274E-13    0.54718355E-07
    7   -0.44347124E+02   -0.35527137E-13    0.13921424E-07
    8   -0.44347124E+02   -0.71054274E-14    0.33087353E-08
 Determinant T1
 iSCC Total electronic   Diff electronic      SCC error    
    1   -0.44297560E+02    0.00000000E+00    0.57247181E-05
    2   -0.44297560E+02   -0.43535426E-05    0.41706845E-05
    3   -0.44297560E+02   -0.20349944E-10    0.26551536E-05
[mpiexec@headnode] Sending Ctrl-C to processes as requested
[mpiexec@headnode] Press Ctrl-C again to force abort
